<?xml version="1.0" encoding="UTF-8"?>

<!-- generated on Thu Sep  8 11:35:50 2016 by SUMO Version dev-SVN-r21424
<?xml version="1.0" encoding="UTF-8"?>

<configuration xmlns:xsi="http://www.w3.org/2001/XMLSchema-instance" xsi:noNamespaceSchemaLocation="http://sumo.dlr.de/xsd/sumoConfiguration.xsd">

    <input>
        <net-file value="motorway.net.xml"/>
        <route-files value="input_routes.rou.xml"/>
        <additional-files value="input_additional.add.xml"/>
    </input>

    <processing>
        <step-method.ballistic value="true"/>
        <max-depart-delay value="1"/>
    </processing>

    <report>
        <verbose value="true"/>
        <xml-validation value="never"/>
        <duration-log.statistics value="true"/>
        <no-step-log value="true"/>
    </report>

</configuration>
-->

<detector xmlns:xsi="http://www.w3.org/2001/XMLSchema-instance" xsi:noNamespaceSchemaLocation="http://sumo.dlr.de/xsd/det_e1_file.xsd">
   <interval begin="0.00" end="900.00" id="beg2_0" nVehContrib="490" flow="1960.00" occupancy="9.67" speed="28.69" length="5.00" nVehEntered="490"/>
   <interval begin="0.00" end="900.00" id="beg2_1" nVehContrib="550" flow="2200.00" occupancy="9.50" speed="32.29" length="5.00" nVehEntered="550"/>
   <interval begin="900.00" end="1800.00" id="beg2_0" nVehContrib="519" flow="2076.00" occupancy="10.04" speed="28.97" length="5.00" nVehEntered="519"/>
   <interval begin="900.00" end="1800.00" id="beg2_1" nVehContrib="583" flow="2332.00" occupancy="10.26" speed="31.72" length="5.00" nVehEntered="583"/>
   <interval begin="1800.00" end="1902.00" id="beg2_0" nVehContrib="50" flow="1764.71" occupancy="8.38" speed="29.38" length="5.00" nVehEntered="50"/>
   <interval begin="1800.00" end="1902.00" id="beg2_1" nVehContrib="63" flow="2223.53" occupancy="9.51" speed="32.68" length="5.00" nVehEntered="63"/>
</detector>
