<?xml version="1.0" encoding="UTF-8"?>

<!-- generated on Thu May 12 15:24:54 2016 by SUMO Version dev-SVN-r20713
<?xml version="1.0" encoding="UTF-8"?>

<configuration xmlns:xsi="http://www.w3.org/2001/XMLSchema-instance" xsi:noNamespaceSchemaLocation="http://sumo.dlr.de/xsd/sumoConfiguration.xsd">

    <input>
        <net-file value="net.net.xml"/>
        <route-files value="input_routes.rou.xml"/>
    </input>

    <output>
        <fcd-output value="fcd.xml"/>
        <tripinfo-output value="tripinfos.xml"/>
    </output>

    <report>
        <xml-validation value="never"/>
        <no-step-log value="true"/>
    </report>

</configuration>
-->

<fcd-export xmlns:xsi="http://www.w3.org/2001/XMLSchema-instance" xsi:noNamespaceSchemaLocation="http://sumo.dlr.de/xsd/fcd_file.xsd">
    <timestep time="0.00">
        <vehicle id="stopped" x="40.00" y="-1.65" angle="90.00" type="DEFAULT_VEHTYPE" speed="0.00" pos="40.00" lane="VODUGES_beg_0" slope="0.00"/>
    </timestep>
    <timestep time="1.00">
        <vehicle id="stopped" x="40.72" y="-1.65" angle="90.00" type="DEFAULT_VEHTYPE" speed="1.44" pos="40.72" lane="VODUGES_beg_0" slope="0.00"/>
    </timestep>
    <timestep time="2.00">
        <vehicle id="stopped" x="43.00" y="-1.65" angle="90.00" type="DEFAULT_VEHTYPE" speed="3.12" pos="43.00" lane="VODUGES_beg_0" slope="0.00"/>
    </timestep>
    <timestep time="3.00">
        <vehicle id="oncoming1" x="100.00" y="1.65" angle="270.00" type="DEFAULT_VEHTYPE" speed="0.00" pos="100.00" lane="-VODUGES_beg_0" slope="0.00"/>
        <vehicle id="oncoming2" x="180.00" y="1.65" angle="270.00" type="DEFAULT_VEHTYPE" speed="0.00" pos="20.00" lane="-VODUGES_beg_0" slope="0.00"/>
        <vehicle id="oncoming3" x="200.00" y="1.65" angle="270.00" type="DEFAULT_VEHTYPE" speed="0.00" pos="0.00" lane="-VODUGES_beg_0" slope="0.00"/>
        <vehicle id="stopped" x="47.39" y="-1.65" angle="90.00" type="DEFAULT_VEHTYPE" speed="5.66" pos="47.39" lane="VODUGES_beg_0" slope="0.00"/>
    </timestep>
    <timestep time="4.00">
        <vehicle id="oncoming1" x="99.02" y="1.65" angle="270.00" type="DEFAULT_VEHTYPE" speed="1.96" pos="100.98" lane="-VODUGES_beg_0" slope="0.00"/>
        <vehicle id="oncoming2" x="179.08" y="1.65" angle="270.00" type="DEFAULT_VEHTYPE" speed="1.83" pos="20.92" lane="-VODUGES_beg_0" slope="0.00"/>
        <vehicle id="oncoming3" x="198.73" y="1.65" angle="270.00" type="DEFAULT_VEHTYPE" speed="2.54" pos="1.27" lane="-VODUGES_beg_0" slope="0.00"/>
        <vehicle id="overtaking" x="0.00" y="-1.65" angle="90.00" type="DEFAULT_VEHTYPE" speed="0.00" pos="0.00" lane="VODUGES_beg_0" slope="0.00"/>
        <vehicle id="stopped" x="52.94" y="-1.65" angle="90.00" type="DEFAULT_VEHTYPE" speed="5.45" pos="52.94" lane="VODUGES_beg_0" slope="0.00"/>
        <vehicle id="stopped2" x="40.00" y="-1.65" angle="90.00" type="DEFAULT_VEHTYPE" speed="0.00" pos="40.00" lane="VODUGES_beg_0" slope="0.00"/>
    </timestep>
    <timestep time="5.00">
        <vehicle id="oncoming1" x="95.92" y="1.65" angle="270.00" type="DEFAULT_VEHTYPE" speed="4.24" pos="104.08" lane="-VODUGES_beg_0" slope="0.00"/>
        <vehicle id="oncoming2" x="176.30" y="1.65" angle="270.00" type="DEFAULT_VEHTYPE" speed="3.72" pos="23.70" lane="-VODUGES_beg_0" slope="0.00"/>
        <vehicle id="oncoming3" x="195.37" y="1.65" angle="270.00" type="DEFAULT_VEHTYPE" speed="4.17" pos="4.63" lane="-VODUGES_beg_0" slope="0.00"/>
        <vehicle id="overtaking" x="1.00" y="-1.65" angle="90.00" type="DEFAULT_VEHTYPE" speed="1.99" pos="1.00" lane="VODUGES_beg_0" slope="0.00"/>
        <vehicle id="stopped" x="57.09" y="-1.65" angle="90.00" type="DEFAULT_VEHTYPE" speed="2.85" pos="57.09" lane="VODUGES_beg_0" slope="0.00"/>
        <vehicle id="stopped2" x="40.86" y="-1.65" angle="90.00" type="DEFAULT_VEHTYPE" speed="1.73" pos="40.86" lane="VODUGES_beg_0" slope="0.00"/>
    </timestep>
    <timestep time="6.00">
        <vehicle id="oncoming1" x="90.67" y="1.65" angle="270.00" type="DEFAULT_VEHTYPE" speed="6.25" pos="109.33" lane="-VODUGES_beg_0" slope="0.00"/>
        <vehicle id="oncoming2" x="171.65" y="1.65" angle="270.00" type="DEFAULT_VEHTYPE" speed="5.59" pos="28.35" lane="-VODUGES_beg_0" slope="0.00"/>
        <vehicle id="oncoming3" x="190.07" y="1.65" angle="270.00" type="DEFAULT_VEHTYPE" speed="6.43" pos="9.93" lane="-VODUGES_beg_0" slope="0.00"/>
        <vehicle id="overtaking" x="3.72" y="-1.65" angle="90.00" type="DEFAULT_VEHTYPE" speed="3.46" pos="3.72" lane="VODUGES_beg_0" slope="0.00"/>
        <vehicle id="stopped" x="57.99" y="-1.65" angle="90.00" type="DEFAULT_VEHTYPE" speed="0.00" pos="57.99" lane="VODUGES_beg_0" slope="0.00"/>
        <vehicle id="stopped2" x="43.85" y="-1.65" angle="90.00" type="DEFAULT_VEHTYPE" speed="4.25" pos="43.85" lane="VODUGES_beg_0" slope="0.00"/>
    </timestep>
    <timestep time="7.00">
        <vehicle id="oncoming1" x="83.33" y="1.65" angle="270.00" type="DEFAULT_VEHTYPE" speed="8.43" pos="116.67" lane="-VODUGES_beg_0" slope="0.00"/>
        <vehicle id="oncoming2" x="165.21" y="1.65" angle="270.00" type="DEFAULT_VEHTYPE" speed="7.30" pos="34.79" lane="-VODUGES_beg_0" slope="0.00"/>
        <vehicle id="oncoming3" x="182.87" y="1.65" angle="270.00" type="DEFAULT_VEHTYPE" speed="7.97" pos="17.13" lane="-VODUGES_beg_0" slope="0.00"/>
        <vehicle id="overtaking" x="8.07" y="-1.65" angle="90.00" type="DEFAULT_VEHTYPE" speed="5.23" pos="8.07" lane="VODUGES_beg_0" slope="0.00"/>
        <vehicle id="stopped" x="58.00" y="-1.65" angle="90.00" type="DEFAULT_VEHTYPE" speed="0.01" pos="58.00" lane="VODUGES_beg_0" slope="0.00"/>
        <vehicle id="stopped2" x="47.86" y="-1.65" angle="90.00" type="DEFAULT_VEHTYPE" speed="3.78" pos="47.86" lane="VODUGES_beg_0" slope="0.00"/>
    </timestep>
    <timestep time="8.00">
        <vehicle id="oncoming1" x="74.21" y="1.65" angle="270.00" type="DEFAULT_VEHTYPE" speed="9.81" pos="125.79" lane="-VODUGES_beg_0" slope="0.00"/>
        <vehicle id="oncoming2" x="157.14" y="1.65" angle="270.00" type="DEFAULT_VEHTYPE" speed="8.83" pos="42.86" lane="-VODUGES_beg_0" slope="0.00"/>
        <vehicle id="oncoming3" x="175.25" y="1.65" angle="270.00" type="DEFAULT_VEHTYPE" speed="7.27" pos="24.75" lane="-VODUGES_beg_0" slope="0.00"/>
        <vehicle id="overtaking" x="14.24" y="-1.65" angle="90.00" type="DEFAULT_VEHTYPE" speed="7.12" pos="14.24" lane="VODUGES_beg_0" slope="0.00"/>
        <vehicle id="stopped" x="58.00" y="-1.65" angle="90.00" type="DEFAULT_VEHTYPE" speed="0.00" pos="58.00" lane="VODUGES_beg_0" slope="0.00"/>
        <vehicle id="stopped2" x="49.93" y="-1.65" angle="90.00" type="DEFAULT_VEHTYPE" speed="0.36" pos="49.93" lane="VODUGES_beg_0" slope="0.00"/>
    </timestep>
    <timestep time="9.00">
        <vehicle id="oncoming1" x="63.25" y="1.65" angle="270.00" type="DEFAULT_VEHTYPE" speed="12.10" pos="136.75" lane="-VODUGES_beg_0" slope="0.00"/>
        <vehicle id="oncoming2" x="147.03" y="1.65" angle="270.00" type="DEFAULT_VEHTYPE" speed="11.39" pos="52.97" lane="-VODUGES_beg_0" slope="0.00"/>
        <vehicle id="oncoming3" x="166.90" y="1.65" angle="270.00" type="DEFAULT_VEHTYPE" speed="9.43" pos="33.10" lane="-VODUGES_beg_0" slope="0.00"/>
        <vehicle id="overtaking" x="22.57" y="-1.65" angle="90.00" type="DEFAULT_VEHTYPE" speed="9.52" pos="22.57" lane="VODUGES_beg_0" slope="0.00"/>
        <vehicle id="stopped" x="58.00" y="-1.65" angle="90.00" type="DEFAULT_VEHTYPE" speed="0.00" pos="58.00" lane="VODUGES_beg_0" slope="0.00"/>
        <vehicle id="stopped2" x="49.95" y="-1.65" angle="90.00" type="DEFAULT_VEHTYPE" speed="0.00" pos="49.95" lane="VODUGES_beg_0" slope="0.00"/>
    </timestep>
    <timestep time="10.00">
        <vehicle id="oncoming1" x="50.87" y="1.65" angle="270.00" type="DEFAULT_VEHTYPE" speed="12.65" pos="149.13" lane="-VODUGES_beg_0" slope="0.00"/>
        <vehicle id="oncoming2" x="134.42" y="1.65" angle="270.00" type="DEFAULT_VEHTYPE" speed="13.85" pos="65.58" lane="-VODUGES_beg_0" slope="0.00"/>
        <vehicle id="oncoming3" x="156.62" y="1.65" angle="270.00" type="DEFAULT_VEHTYPE" speed="11.13" pos="43.38" lane="-VODUGES_beg_0" slope="0.00"/>
        <vehicle id="overtaking" x="32.06" y="-1.65" angle="90.00" type="DEFAULT_VEHTYPE" speed="9.47" pos="32.06" lane="VODUGES_beg_0" slope="0.00"/>
        <vehicle id="stopped" x="58.00" y="-1.65" angle="90.00" type="DEFAULT_VEHTYPE" speed="0.00" pos="58.00" lane="VODUGES_beg_0" slope="0.00"/>
        <vehicle id="stopped2" x="49.95" y="-1.65" angle="90.00" type="DEFAULT_VEHTYPE" speed="0.00" pos="49.95" lane="VODUGES_beg_0" slope="0.00"/>
    </timestep>
    <timestep time="11.00">
        <vehicle id="oncoming1" x="37.87" y="1.65" angle="270.00" type="DEFAULT_VEHTYPE" speed="13.36" pos="162.13" lane="-VODUGES_beg_0" slope="0.00"/>
        <vehicle id="oncoming2" x="121.17" y="1.65" angle="270.00" type="DEFAULT_VEHTYPE" speed="12.64" pos="78.83" lane="-VODUGES_beg_0" slope="0.00"/>
        <vehicle id="oncoming3" x="144.37" y="1.65" angle="270.00" type="DEFAULT_VEHTYPE" speed="13.38" pos="55.63" lane="-VODUGES_beg_0" slope="0.00"/>
        <vehicle id="overtaking" x="39.28" y="-1.65" angle="90.00" type="DEFAULT_VEHTYPE" speed="4.97" pos="39.28" lane="VODUGES_beg_0" slope="0.00"/>
        <vehicle id="stopped" x="58.00" y="-1.65" angle="90.00" type="DEFAULT_VEHTYPE" speed="0.00" pos="58.00" lane="VODUGES_beg_0" slope="0.00"/>
        <vehicle id="stopped2" x="49.95" y="-1.65" angle="90.00" type="DEFAULT_VEHTYPE" speed="0.00" pos="49.95" lane="VODUGES_beg_0" slope="0.00"/>
    </timestep>
    <timestep time="12.00">
        <vehicle id="oncoming1" x="24.41" y="1.65" angle="270.00" type="DEFAULT_VEHTYPE" speed="13.58" pos="175.59" lane="-VODUGES_beg_0" slope="0.00"/>
        <vehicle id="oncoming2" x="108.44" y="1.65" angle="270.00" type="DEFAULT_VEHTYPE" speed="12.83" pos="91.56" lane="-VODUGES_beg_0" slope="0.00"/>
        <vehicle id="oncoming3" x="131.02" y="1.65" angle="270.00" type="DEFAULT_VEHTYPE" speed="13.31" pos="68.98" lane="-VODUGES_beg_0" slope="0.00"/>
        <vehicle id="overtaking" x="42.15" y="-1.65" angle="90.00" type="DEFAULT_VEHTYPE" speed="0.77" pos="42.15" lane="VODUGES_beg_0" slope="0.00"/>
        <vehicle id="stopped" x="58.00" y="-1.65" angle="90.00" type="DEFAULT_VEHTYPE" speed="0.00" pos="58.00" lane="VODUGES_beg_0" slope="0.00"/>
        <vehicle id="stopped2" x="49.95" y="-1.65" angle="90.00" type="DEFAULT_VEHTYPE" speed="0.00" pos="49.95" lane="VODUGES_beg_0" slope="0.00"/>
    </timestep>
    <timestep time="13.00">
        <vehicle id="oncoming1" x="11.12" y="1.65" angle="270.00" type="DEFAULT_VEHTYPE" speed="12.99" pos="188.88" lane="-VODUGES_beg_0" slope="0.00"/>
        <vehicle id="oncoming2" x="95.68" y="1.65" angle="270.00" type="DEFAULT_VEHTYPE" speed="12.67" pos="104.32" lane="-VODUGES_beg_0" slope="0.00"/>
        <vehicle id="oncoming3" x="118.28" y="1.65" angle="270.00" type="DEFAULT_VEHTYPE" speed="12.17" pos="81.72" lane="-VODUGES_beg_0" slope="0.00"/>
        <vehicle id="overtaking" x="42.21" y="-1.65" angle="90.00" type="DEFAULT_VEHTYPE" speed="0.00" pos="42.21" lane="VODUGES_beg_0" slope="0.00"/>
        <vehicle id="stopped" x="58.00" y="-1.65" angle="90.00" type="DEFAULT_VEHTYPE" speed="0.00" pos="58.00" lane="VODUGES_beg_0" slope="0.00"/>
        <vehicle id="stopped2" x="49.95" y="-1.65" angle="90.00" type="DEFAULT_VEHTYPE" speed="0.00" pos="49.95" lane="VODUGES_beg_0" slope="0.00"/>
    </timestep>
    <timestep time="14.00">
        <vehicle id="oncoming2" x="82.51" y="1.65" angle="270.00" type="DEFAULT_VEHTYPE" speed="13.67" pos="117.49" lane="-VODUGES_beg_0" slope="0.00"/>
        <vehicle id="oncoming3" x="106.08" y="1.65" angle="270.00" type="DEFAULT_VEHTYPE" speed="12.22" pos="93.92" lane="-VODUGES_beg_0" slope="0.00"/>
        <vehicle id="overtaking" x="42.41" y="-1.65" angle="90.00" type="DEFAULT_VEHTYPE" speed="0.39" pos="42.41" lane="VODUGES_beg_0" slope="0.00"/>
        <vehicle id="stopped" x="58.00" y="-1.65" angle="90.00" type="DEFAULT_VEHTYPE" speed="0.00" pos="58.00" lane="VODUGES_beg_0" slope="0.00"/>
        <vehicle id="stopped2" x="49.95" y="-1.65" angle="90.00" type="DEFAULT_VEHTYPE" speed="0.00" pos="49.95" lane="VODUGES_beg_0" slope="0.00"/>
    </timestep>
    <timestep time="15.00">
        <vehicle id="oncoming2" x="68.75" y="1.65" angle="270.00" type="DEFAULT_VEHTYPE" speed="13.85" pos="131.25" lane="-VODUGES_beg_0" slope="0.00"/>
        <vehicle id="oncoming3" x="93.21" y="1.65" angle="270.00" type="DEFAULT_VEHTYPE" speed="13.53" pos="106.79" lane="-VODUGES_beg_0" slope="0.00"/>
        <vehicle id="overtaking" x="42.43" y="-1.65" angle="90.00" type="DEFAULT_VEHTYPE" speed="0.00" pos="42.43" lane="VODUGES_beg_0" slope="0.00"/>
        <vehicle id="stopped" x="58.00" y="-1.65" angle="90.00" type="DEFAULT_VEHTYPE" speed="0.00" pos="58.00" lane="VODUGES_beg_0" slope="0.00"/>
        <vehicle id="stopped2" x="49.95" y="-1.65" angle="90.00" type="DEFAULT_VEHTYPE" speed="0.00" pos="49.95" lane="VODUGES_beg_0" slope="0.00"/>
    </timestep>
    <timestep time="16.00">
        <vehicle id="oncoming2" x="54.92" y="1.65" angle="270.00" type="DEFAULT_VEHTYPE" speed="13.80" pos="145.08" lane="-VODUGES_beg_0" slope="0.00"/>
        <vehicle id="oncoming3" x="79.62" y="1.65" angle="270.00" type="DEFAULT_VEHTYPE" speed="13.66" pos="120.38" lane="-VODUGES_beg_0" slope="0.00"/>
        <vehicle id="overtaking" x="42.44" y="-1.65" angle="90.00" type="DEFAULT_VEHTYPE" speed="0.03" pos="42.44" lane="VODUGES_beg_0" slope="0.00"/>
        <vehicle id="stopped" x="58.00" y="-1.65" angle="90.00" type="DEFAULT_VEHTYPE" speed="0.00" pos="58.00" lane="VODUGES_beg_0" slope="0.00"/>
        <vehicle id="stopped2" x="49.95" y="-1.65" angle="90.00" type="DEFAULT_VEHTYPE" speed="0.00" pos="49.95" lane="VODUGES_beg_0" slope="0.00"/>
    </timestep>
    <timestep time="17.00">
        <vehicle id="oncoming2" x="41.13" y="1.65" angle="270.00" type="DEFAULT_VEHTYPE" speed="13.78" pos="158.87" lane="-VODUGES_beg_0" slope="0.00"/>
        <vehicle id="oncoming3" x="66.21" y="1.65" angle="270.00" type="DEFAULT_VEHTYPE" speed="13.15" pos="133.79" lane="-VODUGES_beg_0" slope="0.00"/>
        <vehicle id="overtaking" x="42.44" y="-1.65" angle="90.00" type="DEFAULT_VEHTYPE" speed="0.00" pos="42.44" lane="VODUGES_beg_0" slope="0.00"/>
        <vehicle id="stopped" x="58.00" y="-1.65" angle="90.00" type="DEFAULT_VEHTYPE" speed="0.00" pos="58.00" lane="VODUGES_beg_0" slope="0.00"/>
        <vehicle id="stopped2" x="49.95" y="-1.65" angle="90.00" type="DEFAULT_VEHTYPE" speed="0.00" pos="49.95" lane="VODUGES_beg_0" slope="0.00"/>
    </timestep>
    <timestep time="18.00">
        <vehicle id="oncoming2" x="27.32" y="1.65" angle="270.00" type="DEFAULT_VEHTYPE" speed="13.83" pos="172.68" lane="-VODUGES_beg_0" slope="0.00"/>
        <vehicle id="oncoming3" x="52.74" y="1.65" angle="270.00" type="DEFAULT_VEHTYPE" speed="13.79" pos="147.26" lane="-VODUGES_beg_0" slope="0.00"/>
        <vehicle id="overtaking" x="42.44" y="-1.65" angle="90.00" type="DEFAULT_VEHTYPE" speed="0.01" pos="42.44" lane="VODUGES_beg_0" slope="0.00"/>
        <vehicle id="stopped" x="58.00" y="-1.65" angle="90.00" type="DEFAULT_VEHTYPE" speed="0.00" pos="58.00" lane="VODUGES_beg_0" slope="0.00"/>
        <vehicle id="stopped2" x="49.95" y="-1.65" angle="90.00" type="DEFAULT_VEHTYPE" speed="0.00" pos="49.95" lane="VODUGES_beg_0" slope="0.00"/>
    </timestep>
    <timestep time="19.00">
        <vehicle id="oncoming2" x="13.60" y="1.65" angle="270.00" type="DEFAULT_VEHTYPE" speed="13.61" pos="186.40" lane="-VODUGES_beg_0" slope="0.00"/>
        <vehicle id="oncoming3" x="39.35" y="1.65" angle="270.00" type="DEFAULT_VEHTYPE" speed="13.01" pos="160.65" lane="-VODUGES_beg_0" slope="0.00"/>
        <vehicle id="overtaking" x="42.44" y="-1.65" angle="90.00" type="DEFAULT_VEHTYPE" speed="0.00" pos="42.44" lane="VODUGES_beg_0" slope="0.00"/>
        <vehicle id="stopped" x="58.00" y="-1.65" angle="90.00" type="DEFAULT_VEHTYPE" speed="0.00" pos="58.00" lane="VODUGES_beg_0" slope="0.00"/>
        <vehicle id="stopped2" x="49.95" y="-1.65" angle="90.00" type="DEFAULT_VEHTYPE" speed="0.00" pos="49.95" lane="VODUGES_beg_0" slope="0.00"/>
    </timestep>
    <timestep time="20.00">
        <vehicle id="oncoming2" x="0.10" y="1.65" angle="270.00" type="DEFAULT_VEHTYPE" speed="13.38" pos="199.90" lane="-VODUGES_beg_0" slope="0.00"/>
        <vehicle id="oncoming3" x="26.23" y="1.65" angle="270.00" type="DEFAULT_VEHTYPE" speed="13.22" pos="173.77" lane="-VODUGES_beg_0" slope="0.00"/>
        <vehicle id="overtaking" x="42.44" y="1.65" angle="90.00" type="DEFAULT_VEHTYPE" speed="0.00" pos="157.56" lane="-VODUGES_beg_0" slope="0.00"/>
        <vehicle id="stopped" x="58.00" y="-1.65" angle="90.00" type="DEFAULT_VEHTYPE" speed="0.00" pos="58.00" lane="VODUGES_beg_0" slope="0.00"/>
        <vehicle id="stopped2" x="49.95" y="-1.65" angle="90.00" type="DEFAULT_VEHTYPE" speed="0.00" pos="49.95" lane="VODUGES_beg_0" slope="0.00"/>
    </timestep>
    <timestep time="21.00">
        <vehicle id="oncoming3" x="13.31" y="1.65" angle="270.00" type="DEFAULT_VEHTYPE" speed="12.62" pos="186.69" lane="-VODUGES_beg_0" slope="0.00"/>
        <vehicle id="overtaking" x="43.73" y="1.65" angle="90.00" type="DEFAULT_VEHTYPE" speed="2.57" pos="156.27" lane="-VODUGES_beg_0" slope="0.00"/>
        <vehicle id="stopped" x="58.00" y="-1.65" angle="90.00" type="DEFAULT_VEHTYPE" speed="0.00" pos="58.00" lane="VODUGES_beg_0" slope="0.00"/>
        <vehicle id="stopped2" x="49.95" y="-1.65" angle="90.00" type="DEFAULT_VEHTYPE" speed="0.00" pos="49.95" lane="VODUGES_beg_0" slope="0.00"/>
    </timestep>
    <timestep time="22.00">
        <vehicle id="oncoming3" x="0.62" y="1.65" angle="270.00" type="DEFAULT_VEHTYPE" speed="12.75" pos="199.38" lane="-VODUGES_beg_0" slope="0.00"/>
        <vehicle id="overtaking" x="47.19" y="1.65" angle="90.00" type="DEFAULT_VEHTYPE" speed="4.36" pos="152.81" lane="-VODUGES_beg_0" slope="0.00"/>
        <vehicle id="stopped" x="58.00" y="-1.65" angle="90.00" type="DEFAULT_VEHTYPE" speed="0.00" pos="58.00" lane="VODUGES_beg_0" slope="0.00"/>
        <vehicle id="stopped2" x="49.95" y="-1.65" angle="90.00" type="DEFAULT_VEHTYPE" speed="0.00" pos="49.95" lane="VODUGES_beg_0" slope="0.00"/>
    </timestep>
    <timestep time="23.00">
        <vehicle id="overtaking" x="52.39" y="1.65" angle="90.00" type="DEFAULT_VEHTYPE" speed="6.03" pos="147.61" lane="-VODUGES_beg_0" slope="0.00"/>
        <vehicle id="stopped" x="58.00" y="-1.65" angle="90.00" type="DEFAULT_VEHTYPE" speed="0.00" pos="58.00" lane="VODUGES_beg_0" slope="0.00"/>
        <vehicle id="stopped2" x="49.95" y="-1.65" angle="90.00" type="DEFAULT_VEHTYPE" speed="0.00" pos="49.95" lane="VODUGES_beg_0" slope="0.00"/>
    </timestep>
    <timestep time="24.00">
        <vehicle id="overtaking" x="59.35" y="1.65" angle="90.00" type="DEFAULT_VEHTYPE" speed="7.89" pos="140.65" lane="-VODUGES_beg_0" slope="0.00"/>
        <vehicle id="stopped" x="58.00" y="-1.65" angle="90.00" type="DEFAULT_VEHTYPE" speed="0.00" pos="58.00" lane="VODUGES_beg_0" slope="0.00"/>
        <vehicle id="stopped2" x="49.95" y="-1.65" angle="90.00" type="DEFAULT_VEHTYPE" speed="0.00" pos="49.95" lane="VODUGES_beg_0" slope="0.00"/>
    </timestep>
    <timestep time="25.00">
        <vehicle id="overtaking" x="68.26" y="-1.65" angle="90.00" type="DEFAULT_VEHTYPE" speed="9.95" pos="68.26" lane="VODUGES_beg_0" slope="0.00"/>
        <vehicle id="stopped" x="58.00" y="-1.65" angle="90.00" type="DEFAULT_VEHTYPE" speed="0.00" pos="58.00" lane="VODUGES_beg_0" slope="0.00"/>
        <vehicle id="stopped2" x="49.95" y="-1.65" angle="90.00" type="DEFAULT_VEHTYPE" speed="0.00" pos="49.95" lane="VODUGES_beg_0" slope="0.00"/>
    </timestep>
    <timestep time="26.00">
        <vehicle id="overtaking" x="79.45" y="-1.65" angle="90.00" type="DEFAULT_VEHTYPE" speed="12.42" pos="79.45" lane="VODUGES_beg_0" slope="0.00"/>
        <vehicle id="stopped" x="58.00" y="-1.65" angle="90.00" type="DEFAULT_VEHTYPE" speed="0.00" pos="58.00" lane="VODUGES_beg_0" slope="0.00"/>
        <vehicle id="stopped2" x="49.95" y="-1.65" angle="90.00" type="DEFAULT_VEHTYPE" speed="0.00" pos="49.95" lane="VODUGES_beg_0" slope="0.00"/>
    </timestep>
    <timestep time="27.00">
        <vehicle id="overtaking" x="92.10" y="-1.65" angle="90.00" type="DEFAULT_VEHTYPE" speed="12.87" pos="92.10" lane="VODUGES_beg_0" slope="0.00"/>
        <vehicle id="stopped" x="58.00" y="-1.65" angle="90.00" type="DEFAULT_VEHTYPE" speed="0.00" pos="58.00" lane="VODUGES_beg_0" slope="0.00"/>
        <vehicle id="stopped2" x="49.95" y="-1.65" angle="90.00" type="DEFAULT_VEHTYPE" speed="0.00" pos="49.95" lane="VODUGES_beg_0" slope="0.00"/>
    </timestep>
    <timestep time="28.00">
        <vehicle id="overtaking" x="105.40" y="-1.65" angle="90.00" type="DEFAULT_VEHTYPE" speed="13.73" pos="105.40" lane="VODUGES_beg_0" slope="0.00"/>
        <vehicle id="stopped" x="58.00" y="-1.65" angle="90.00" type="DEFAULT_VEHTYPE" speed="0.00" pos="58.00" lane="VODUGES_beg_0" slope="0.00"/>
        <vehicle id="stopped2" x="49.95" y="-1.65" angle="90.00" type="DEFAULT_VEHTYPE" speed="0.00" pos="49.95" lane="VODUGES_beg_0" slope="0.00"/>
    </timestep>
    <timestep time="29.00">
        <vehicle id="overtaking" x="118.64" y="-1.65" angle="90.00" type="DEFAULT_VEHTYPE" speed="12.74" pos="118.64" lane="VODUGES_beg_0" slope="0.00"/>
        <vehicle id="stopped" x="58.00" y="-1.65" angle="90.00" type="DEFAULT_VEHTYPE" speed="0.00" pos="58.00" lane="VODUGES_beg_0" slope="0.00"/>
        <vehicle id="stopped2" x="49.95" y="-1.65" angle="90.00" type="DEFAULT_VEHTYPE" speed="0.00" pos="49.95" lane="VODUGES_beg_0" slope="0.00"/>
    </timestep>
    <timestep time="30.00">
        <vehicle id="overtaking" x="131.92" y="-1.65" angle="90.00" type="DEFAULT_VEHTYPE" speed="13.83" pos="131.92" lane="VODUGES_beg_0" slope="0.00"/>
        <vehicle id="stopped" x="58.00" y="-1.65" angle="90.00" type="DEFAULT_VEHTYPE" speed="0.00" pos="58.00" lane="VODUGES_beg_0" slope="0.00"/>
        <vehicle id="stopped2" x="49.95" y="-1.65" angle="90.00" type="DEFAULT_VEHTYPE" speed="0.00" pos="49.95" lane="VODUGES_beg_0" slope="0.00"/>
    </timestep>
    <timestep time="31.00">
        <vehicle id="overtaking" x="145.15" y="-1.65" angle="90.00" type="DEFAULT_VEHTYPE" speed="12.62" pos="145.15" lane="VODUGES_beg_0" slope="0.00"/>
        <vehicle id="stopped" x="58.00" y="-1.65" angle="90.00" type="DEFAULT_VEHTYPE" speed="0.00" pos="58.00" lane="VODUGES_beg_0" slope="0.00"/>
        <vehicle id="stopped2" x="49.95" y="-1.65" angle="90.00" type="DEFAULT_VEHTYPE" speed="0.00" pos="49.95" lane="VODUGES_beg_0" slope="0.00"/>
    </timestep>
    <timestep time="32.00">
        <vehicle id="overtaking" x="157.82" y="-1.65" angle="90.00" type="DEFAULT_VEHTYPE" speed="12.71" pos="157.82" lane="VODUGES_beg_0" slope="0.00"/>
        <vehicle id="stopped" x="58.00" y="-1.65" angle="90.00" type="DEFAULT_VEHTYPE" speed="0.00" pos="58.00" lane="VODUGES_beg_0" slope="0.00"/>
        <vehicle id="stopped2" x="49.95" y="-1.65" angle="90.00" type="DEFAULT_VEHTYPE" speed="0.00" pos="49.95" lane="VODUGES_beg_0" slope="0.00"/>
    </timestep>
    <timestep time="33.00">
        <vehicle id="overtaking" x="170.84" y="-1.65" angle="90.00" type="DEFAULT_VEHTYPE" speed="13.33" pos="170.84" lane="VODUGES_beg_0" slope="0.00"/>
        <vehicle id="stopped" x="58.00" y="-1.65" angle="90.00" type="DEFAULT_VEHTYPE" speed="0.00" pos="58.00" lane="VODUGES_beg_0" slope="0.00"/>
        <vehicle id="stopped2" x="49.95" y="-1.65" angle="90.00" type="DEFAULT_VEHTYPE" speed="0.00" pos="49.95" lane="VODUGES_beg_0" slope="0.00"/>
    </timestep>
    <timestep time="34.00">
        <vehicle id="overtaking" x="184.20" y="-1.65" angle="90.00" type="DEFAULT_VEHTYPE" speed="13.40" pos="184.20" lane="VODUGES_beg_0" slope="0.00"/>
        <vehicle id="stopped" x="58.00" y="-1.65" angle="90.00" type="DEFAULT_VEHTYPE" speed="0.00" pos="58.00" lane="VODUGES_beg_0" slope="0.00"/>
        <vehicle id="stopped2" x="49.95" y="-1.65" angle="90.00" type="DEFAULT_VEHTYPE" speed="0.00" pos="49.95" lane="VODUGES_beg_0" slope="0.00"/>
    </timestep>
    <timestep time="35.00">
        <vehicle id="overtaking" x="197.47" y="-1.65" angle="90.00" type="DEFAULT_VEHTYPE" speed="13.14" pos="197.47" lane="VODUGES_beg_0" slope="0.00"/>
        <vehicle id="stopped" x="58.00" y="-1.65" angle="90.00" type="DEFAULT_VEHTYPE" speed="0.00" pos="58.00" lane="VODUGES_beg_0" slope="0.00"/>
        <vehicle id="stopped2" x="49.95" y="-1.65" angle="90.00" type="DEFAULT_VEHTYPE" speed="0.00" pos="49.95" lane="VODUGES_beg_0" slope="0.00"/>
    </timestep>
    <timestep time="36.00">
        <vehicle id="stopped" x="58.00" y="-1.65" angle="90.00" type="DEFAULT_VEHTYPE" speed="0.00" pos="58.00" lane="VODUGES_beg_0" slope="0.00"/>
        <vehicle id="stopped2" x="49.95" y="-1.65" angle="90.00" type="DEFAULT_VEHTYPE" speed="0.00" pos="49.95" lane="VODUGES_beg_0" slope="0.00"/>
    </timestep>
    <timestep time="37.00">
        <vehicle id="stopped" x="58.00" y="-1.65" angle="90.00" type="DEFAULT_VEHTYPE" speed="0.00" pos="58.00" lane="VODUGES_beg_0" slope="0.00"/>
        <vehicle id="stopped2" x="49.95" y="-1.65" angle="90.00" type="DEFAULT_VEHTYPE" speed="0.00" pos="49.95" lane="VODUGES_beg_0" slope="0.00"/>
    </timestep>
    <timestep time="38.00">
        <vehicle id="stopped" x="58.00" y="-1.65" angle="90.00" type="DEFAULT_VEHTYPE" speed="0.00" pos="58.00" lane="VODUGES_beg_0" slope="0.00"/>
        <vehicle id="stopped2" x="49.95" y="-1.65" angle="90.00" type="DEFAULT_VEHTYPE" speed="0.00" pos="49.95" lane="VODUGES_beg_0" slope="0.00"/>
    </timestep>
    <timestep time="39.00">
        <vehicle id="stopped" x="58.00" y="-1.65" angle="90.00" type="DEFAULT_VEHTYPE" speed="0.00" pos="58.00" lane="VODUGES_beg_0" slope="0.00"/>
        <vehicle id="stopped2" x="49.95" y="-1.65" angle="90.00" type="DEFAULT_VEHTYPE" speed="0.00" pos="49.95" lane="VODUGES_beg_0" slope="0.00"/>
    </timestep>
    <timestep time="40.00">
        <vehicle id="stopped" x="58.00" y="-1.65" angle="90.00" type="DEFAULT_VEHTYPE" speed="0.00" pos="58.00" lane="VODUGES_beg_0" slope="0.00"/>
        <vehicle id="stopped2" x="49.95" y="-1.65" angle="90.00" type="DEFAULT_VEHTYPE" speed="0.00" pos="49.95" lane="VODUGES_beg_0" slope="0.00"/>
    </timestep>
    <timestep time="41.00">
        <vehicle id="stopped" x="58.00" y="-1.65" angle="90.00" type="DEFAULT_VEHTYPE" speed="0.00" pos="58.00" lane="VODUGES_beg_0" slope="0.00"/>
        <vehicle id="stopped2" x="49.95" y="-1.65" angle="90.00" type="DEFAULT_VEHTYPE" speed="0.00" pos="49.95" lane="VODUGES_beg_0" slope="0.00"/>
    </timestep>
    <timestep time="42.00">
        <vehicle id="stopped" x="58.00" y="-1.65" angle="90.00" type="DEFAULT_VEHTYPE" speed="0.00" pos="58.00" lane="VODUGES_beg_0" slope="0.00"/>
        <vehicle id="stopped2" x="49.95" y="-1.65" angle="90.00" type="DEFAULT_VEHTYPE" speed="0.00" pos="49.95" lane="VODUGES_beg_0" slope="0.00"/>
    </timestep>
    <timestep time="43.00">
        <vehicle id="stopped" x="58.00" y="-1.65" angle="90.00" type="DEFAULT_VEHTYPE" speed="0.00" pos="58.00" lane="VODUGES_beg_0" slope="0.00"/>
        <vehicle id="stopped2" x="49.95" y="-1.65" angle="90.00" type="DEFAULT_VEHTYPE" speed="0.00" pos="49.95" lane="VODUGES_beg_0" slope="0.00"/>
    </timestep>
    <timestep time="44.00">
        <vehicle id="stopped" x="58.00" y="-1.65" angle="90.00" type="DEFAULT_VEHTYPE" speed="0.00" pos="58.00" lane="VODUGES_beg_0" slope="0.00"/>
        <vehicle id="stopped2" x="49.95" y="-1.65" angle="90.00" type="DEFAULT_VEHTYPE" speed="0.00" pos="49.95" lane="VODUGES_beg_0" slope="0.00"/>
    </timestep>
    <timestep time="45.00">
        <vehicle id="stopped" x="58.00" y="-1.65" angle="90.00" type="DEFAULT_VEHTYPE" speed="0.00" pos="58.00" lane="VODUGES_beg_0" slope="0.00"/>
        <vehicle id="stopped2" x="49.95" y="-1.65" angle="90.00" type="DEFAULT_VEHTYPE" speed="0.00" pos="49.95" lane="VODUGES_beg_0" slope="0.00"/>
    </timestep>
    <timestep time="46.00">
        <vehicle id="stopped" x="58.00" y="-1.65" angle="90.00" type="DEFAULT_VEHTYPE" speed="0.00" pos="58.00" lane="VODUGES_beg_0" slope="0.00"/>
        <vehicle id="stopped2" x="49.95" y="-1.65" angle="90.00" type="DEFAULT_VEHTYPE" speed="0.00" pos="49.95" lane="VODUGES_beg_0" slope="0.00"/>
    </timestep>
    <timestep time="47.00">
        <vehicle id="stopped" x="58.00" y="-1.65" angle="90.00" type="DEFAULT_VEHTYPE" speed="0.00" pos="58.00" lane="VODUGES_beg_0" slope="0.00"/>
        <vehicle id="stopped2" x="49.95" y="-1.65" angle="90.00" type="DEFAULT_VEHTYPE" speed="0.00" pos="49.95" lane="VODUGES_beg_0" slope="0.00"/>
    </timestep>
    <timestep time="48.00">
        <vehicle id="stopped" x="58.00" y="-1.65" angle="90.00" type="DEFAULT_VEHTYPE" speed="0.00" pos="58.00" lane="VODUGES_beg_0" slope="0.00"/>
        <vehicle id="stopped2" x="49.95" y="-1.65" angle="90.00" type="DEFAULT_VEHTYPE" speed="0.00" pos="49.95" lane="VODUGES_beg_0" slope="0.00"/>
    </timestep>
    <timestep time="49.00">
        <vehicle id="stopped" x="58.00" y="-1.65" angle="90.00" type="DEFAULT_VEHTYPE" speed="0.00" pos="58.00" lane="VODUGES_beg_0" slope="0.00"/>
        <vehicle id="stopped2" x="49.95" y="-1.65" angle="90.00" type="DEFAULT_VEHTYPE" speed="0.00" pos="49.95" lane="VODUGES_beg_0" slope="0.00"/>
    </timestep>
    <timestep time="50.00">
        <vehicle id="stopped" x="58.00" y="-1.65" angle="90.00" type="DEFAULT_VEHTYPE" speed="0.00" pos="58.00" lane="VODUGES_beg_0" slope="0.00"/>
        <vehicle id="stopped2" x="49.95" y="-1.65" angle="90.00" type="DEFAULT_VEHTYPE" speed="0.00" pos="49.95" lane="VODUGES_beg_0" slope="0.00"/>
    </timestep>
    <timestep time="51.00">