<?xml version="1.0" encoding="UTF-8"?>

<!-- generated on Thu May 12 15:24:54 2016 by SUMO Version dev-SVN-r20713
<?xml version="1.0" encoding="UTF-8"?>

<configuration xmlns:xsi="http://www.w3.org/2001/XMLSchema-instance" xsi:noNamespaceSchemaLocation="http://sumo.dlr.de/xsd/sumoConfiguration.xsd">

    <input>
        <net-file value="net.net.xml"/>
        <route-files value="input_routes.rou.xml"/>
    </input>

    <output>
        <fcd-output value="fcd.xml"/>
        <tripinfo-output value="tripinfos.xml"/>
    </output>

    <report>
        <xml-validation value="never"/>
        <no-step-log value="true"/>
    </report>

</configuration>
-->

<tripinfos xmlns:xsi="http://www.w3.org/2001/XMLSchema-instance" xsi:noNamespaceSchemaLocation="http://sumo.dlr.de/xsd/tripinfo_file.xsd">
    <tripinfo id="oncoming1" depart="3.00" departLane="-VODUGES_beg_0" departPos="100.00" departSpeed="0.00" departDelay="0.00" arrival="14.00" arrivalLane="-VODUGES_beg_0" arrivalPos="200.00" arrivalSpeed="13.14" duration="11.00" routeLength="100.00" waitSteps="0" timeLoss="3.18" rerouteNo="0" devices="tripinfo_oncoming1" vType="DEFAULT_VEHTYPE" vaporized=""/>
    <tripinfo id="oncoming2" depart="3.00" departLane="-VODUGES_beg_0" departPos="20.00" departSpeed="0.00" departDelay="0.00" arrival="21.00" arrivalLane="-VODUGES_beg_0" arrivalPos="200.00" arrivalSpeed="13.42" duration="18.00" routeLength="180.00" waitSteps="0" timeLoss="3.59" rerouteNo="0" devices="tripinfo_oncoming2" vType="DEFAULT_VEHTYPE" vaporized=""/>
    <tripinfo id="oncoming3" depart="3.00" departLane="-VODUGES_beg_0" departPos="0.00" departSpeed="0.00" departDelay="0.00" arrival="23.00" arrivalLane="-VODUGES_beg_0" arrivalPos="200.00" arrivalSpeed="13.34" duration="20.00" routeLength="200.00" waitSteps="0" timeLoss="4.22" rerouteNo="0" devices="tripinfo_oncoming3" vType="DEFAULT_VEHTYPE" vaporized=""/>
    <tripinfo id="overtaking" depart="4.00" departLane="VODUGES_beg_0" departPos="0.00" departSpeed="0.00" departDelay="2.00" arrival="36.00" arrivalLane="VODUGES_beg_0" arrivalPos="200.00" arrivalSpeed="13.06" duration="32.00" routeLength="200.00" waitSteps="7" timeLoss="17.53" rerouteNo="0" devices="tripinfo_overtaking" vType="DEFAULT_VEHTYPE" vaporized=""/>
    <tripinfo id="stopped" depart="0.00" departLane="VODUGES_beg_0" departPos="40.00" departSpeed="0.00" departDelay="0.00" arrival="123.00" arrivalLane="VODUGES_beg_0" arrivalPos="200.00" arrivalSpeed="13.70" duration="123.00" routeLength="160.00" waitSteps="2" timeLoss="10.00" rerouteNo="0" devices="tripinfo_stopped" vType="DEFAULT_VEHTYPE" vaporized=""/>
    <tripinfo id="stopped2" depart="4.00" departLane="VODUGES_beg_0" departPos="40.00" departSpeed="0.00" departDelay="2.00" arrival="125.00" arrivalLane="VODUGES_beg_0" arrivalPos="200.00" arrivalSpeed="13.57" duration="121.00" routeLength="160.00" waitSteps="1" timeLoss="7.87" rerouteNo="0" devices="tripinfo_stopped2" vType="DEFAULT_VEHTYPE" vaporized=""/>
</tripinfos>
