<?xml version="1.0" encoding="UTF-8"?>

<!-- generated on 12/17/15 14:53:51 by SUMO Version dev-SVN-r19639
<?xml version="1.0" encoding="UTF-8"?>

<configuration xmlns:xsi="http://www.w3.org/2001/XMLSchema-instance" xsi:noNamespaceSchemaLocation="http://sumo.dlr.de/xsd/sumoConfiguration.xsd">

    <input>
        <net-file value="net.net.xml"/>
        <additional-files value="input_routes.rou.xml"/>
    </input>

    <output>
        <fcd-output value="fcd.xml"/>
    </output>

    <time>
        <step-length value="0.1"/>
    </time>

    <report>
        <xml-validation value="never"/>
        <no-step-log value="true"/>
    </report>

    <gui_only>
        <gui-settings-file value="settings.xml"/>
    </gui_only>

</configuration>
-->

<fcd-export xmlns:xsi="http://www.w3.org/2001/XMLSchema-instance" xsi:noNamespaceSchemaLocation="http://sumo.dlr.de/xsd/fcd_file.xsd">
    <timestep time="0.00">
        <vehicle id="oncoming1" x="100.00" y="31.65" angle="270.00" type="opposite" speed="0.00" pos="100.00" lane="-VODUGES_beg_0" slope="0.00"/>
        <vehicle id="oncoming1_1" x="100.00" y="1.65" angle="270.00" type="opposite" speed="0.00" pos="100.00" lane="gneE1_0" slope="0.00"/>
        <vehicle id="oncoming2" x="200.00" y="31.65" angle="270.00" type="opposite" speed="0.00" pos="0.00" lane="-VODUGES_beg_0" slope="0.00"/>
        <vehicle id="oncoming2_1" x="200.00" y="1.65" angle="270.00" type="opposite" speed="0.00" pos="0.00" lane="gneE1_0" slope="0.00"/>
        <vehicle id="stopped" x="40.00" y="28.35" angle="90.00" type="DEFAULT_VEHTYPE" speed="0.00" pos="40.00" lane="VODUGES_beg_0" slope="0.00"/>
        <vehicle id="stopped_1" x="40.00" y="-1.65" angle="90.00" type="DEFAULT_VEHTYPE" speed="0.00" pos="40.00" lane="gneE0_0" slope="0.00"/>
    </timestep>
    <timestep time="0.10">
        <vehicle id="oncoming1" x="99.97" y="31.65" angle="270.00" type="opposite" speed="0.25" pos="100.03" lane="-VODUGES_beg_0" slope="0.00"/>
        <vehicle id="oncoming1_1" x="99.97" y="1.65" angle="270.00" type="opposite" speed="0.25" pos="100.03" lane="gneE1_0" slope="0.00"/>
        <vehicle id="oncoming2" x="199.97" y="31.65" angle="270.00" type="opposite" speed="0.26" pos="0.03" lane="-VODUGES_beg_0" slope="0.00"/>
        <vehicle id="oncoming2_1" x="199.97" y="1.65" angle="270.00" type="opposite" speed="0.26" pos="0.03" lane="gneE1_0" slope="0.00"/>
        <vehicle id="stopped" x="40.02" y="28.35" angle="90.00" type="DEFAULT_VEHTYPE" speed="0.25" pos="40.02" lane="VODUGES_beg_0" slope="0.00"/>
        <vehicle id="stopped_1" x="40.03" y="-1.65" angle="90.00" type="DEFAULT_VEHTYPE" speed="0.25" pos="40.03" lane="gneE0_0" slope="0.00"/>
    </timestep>
    <timestep time="0.20">
        <vehicle id="oncoming1" x="99.92" y="31.65" angle="270.00" type="opposite" speed="0.50" pos="100.08" lane="-VODUGES_beg_0" slope="0.00"/>
        <vehicle id="oncoming1_1" x="99.92" y="1.65" angle="270.00" type="opposite" speed="0.51" pos="100.08" lane="gneE1_0" slope="0.00"/>
        <vehicle id="oncoming2" x="199.92" y="31.65" angle="270.00" type="opposite" speed="0.51" pos="0.08" lane="-VODUGES_beg_0" slope="0.00"/>
        <vehicle id="oncoming2_1" x="199.92" y="1.65" angle="270.00" type="opposite" speed="0.50" pos="0.08" lane="gneE1_0" slope="0.00"/>
        <vehicle id="stopped" x="40.07" y="28.35" angle="90.00" type="DEFAULT_VEHTYPE" speed="0.49" pos="40.07" lane="VODUGES_beg_0" slope="0.00"/>
        <vehicle id="stopped_1" x="40.07" y="-1.65" angle="90.00" type="DEFAULT_VEHTYPE" speed="0.49" pos="40.07" lane="gneE0_0" slope="0.00"/>
    </timestep>
    <timestep time="0.30">
        <vehicle id="oncoming1" x="99.85" y="31.65" angle="270.00" type="opposite" speed="0.75" pos="100.15" lane="-VODUGES_beg_0" slope="0.00"/>
        <vehicle id="oncoming1_1" x="99.85" y="1.65" angle="270.00" type="opposite" speed="0.77" pos="100.15" lane="gneE1_0" slope="0.00"/>
        <vehicle id="oncoming2" x="199.85" y="31.65" angle="270.00" type="opposite" speed="0.74" pos="0.15" lane="-VODUGES_beg_0" slope="0.00"/>
        <vehicle id="oncoming2_1" x="199.85" y="1.65" angle="270.00" type="opposite" speed="0.73" pos="0.15" lane="gneE1_0" slope="0.00"/>
        <vehicle id="stopped" x="40.15" y="28.35" angle="90.00" type="DEFAULT_VEHTYPE" speed="0.73" pos="40.15" lane="VODUGES_beg_0" slope="0.00"/>
        <vehicle id="stopped_1" x="40.15" y="-1.65" angle="90.00" type="DEFAULT_VEHTYPE" speed="0.74" pos="40.15" lane="gneE0_0" slope="0.00"/>
    </timestep>
    <timestep time="0.40">
        <vehicle id="oncoming1" x="99.75" y="31.65" angle="270.00" type="opposite" speed="0.97" pos="100.25" lane="-VODUGES_beg_0" slope="0.00"/>
        <vehicle id="oncoming1_1" x="99.75" y="1.65" angle="270.00" type="opposite" speed="1.01" pos="100.25" lane="gneE1_0" slope="0.00"/>
        <vehicle id="oncoming2" x="199.75" y="31.65" angle="270.00" type="opposite" speed="1.00" pos="0.25" lane="-VODUGES_beg_0" slope="0.00"/>
        <vehicle id="oncoming2_1" x="199.76" y="1.65" angle="270.00" type="opposite" speed="0.96" pos="0.24" lane="gneE1_0" slope="0.00"/>
        <vehicle id="stopped" x="40.24" y="28.35" angle="90.00" type="DEFAULT_VEHTYPE" speed="0.98" pos="40.24" lane="VODUGES_beg_0" slope="0.00"/>
        <vehicle id="stopped_1" x="40.25" y="-1.65" angle="90.00" type="DEFAULT_VEHTYPE" speed="0.98" pos="40.25" lane="gneE0_0" slope="0.00"/>
    </timestep>
    <timestep time="0.50">
        <vehicle id="oncoming1" x="99.63" y="31.65" angle="270.00" type="opposite" speed="1.18" pos="100.37" lane="-VODUGES_beg_0" slope="0.00"/>
        <vehicle id="oncoming1_1" x="99.62" y="1.65" angle="270.00" type="opposite" speed="1.24" pos="100.38" lane="gneE1_0" slope="0.00"/>
        <vehicle id="oncoming2" x="199.63" y="31.65" angle="270.00" type="opposite" speed="1.21" pos="0.37" lane="-VODUGES_beg_0" slope="0.00"/>
        <vehicle id="oncoming2_1" x="199.63" y="1.65" angle="270.00" type="opposite" speed="1.20" pos="0.37" lane="gneE1_0" slope="0.00"/>
        <vehicle id="stopped" x="40.36" y="28.35" angle="90.00" type="DEFAULT_VEHTYPE" speed="1.18" pos="40.36" lane="VODUGES_beg_0" slope="0.00"/>
        <vehicle id="stopped_1" x="40.37" y="-1.65" angle="90.00" type="DEFAULT_VEHTYPE" speed="1.21" pos="40.37" lane="gneE0_0" slope="0.00"/>
    </timestep>
    <timestep time="0.60">
        <vehicle id="oncoming1" x="99.49" y="31.65" angle="270.00" type="opposite" speed="1.42" pos="100.51" lane="-VODUGES_beg_0" slope="0.00"/>
        <vehicle id="oncoming1_1" x="99.48" y="1.65" angle="270.00" type="opposite" speed="1.43" pos="100.52" lane="gneE1_0" slope="0.00"/>
        <vehicle id="oncoming2" x="199.49" y="31.65" angle="270.00" type="opposite" speed="1.41" pos="0.51" lane="-VODUGES_beg_0" slope="0.00"/>
        <vehicle id="oncoming2_1" x="199.49" y="1.65" angle="270.00" type="opposite" speed="1.46" pos="0.51" lane="gneE1_0" slope="0.00"/>
        <vehicle id="stopped" x="40.51" y="28.35" angle="90.00" type="DEFAULT_VEHTYPE" speed="1.44" pos="40.51" lane="VODUGES_beg_0" slope="0.00"/>
        <vehicle id="stopped_1" x="40.51" y="-1.65" angle="90.00" type="DEFAULT_VEHTYPE" speed="1.46" pos="40.51" lane="gneE0_0" slope="0.00"/>
    </timestep>
    <timestep time="0.70">
        <vehicle id="oncoming1" x="99.33" y="31.65" angle="270.00" type="opposite" speed="1.65" pos="100.67" lane="-VODUGES_beg_0" slope="0.00"/>
        <vehicle id="oncoming1_1" x="99.31" y="1.65" angle="270.00" type="opposite" speed="1.65" pos="100.69" lane="gneE1_0" slope="0.00"/>
        <vehicle id="oncoming2" x="199.32" y="31.65" angle="270.00" type="opposite" speed="1.66" pos="0.68" lane="-VODUGES_beg_0" slope="0.00"/>
        <vehicle id="oncoming2_1" x="199.33" y="1.65" angle="270.00" type="opposite" speed="1.64" pos="0.67" lane="gneE1_0" slope="0.00"/>
        <vehicle id="stopped" x="40.67" y="28.35" angle="90.00" type="DEFAULT_VEHTYPE" speed="1.64" pos="40.67" lane="VODUGES_beg_0" slope="0.00"/>
        <vehicle id="stopped_1" x="40.69" y="-1.65" angle="90.00" type="DEFAULT_VEHTYPE" speed="1.71" pos="40.69" lane="gneE0_0" slope="0.00"/>
    </timestep>
    <timestep time="0.80">
        <vehicle id="oncoming1" x="99.14" y="31.65" angle="270.00" type="opposite" speed="1.89" pos="100.86" lane="-VODUGES_beg_0" slope="0.00"/>
        <vehicle id="oncoming1_1" x="99.12" y="1.65" angle="270.00" type="opposite" speed="1.89" pos="100.88" lane="gneE1_0" slope="0.00"/>
        <vehicle id="oncoming2" x="199.13" y="31.65" angle="270.00" type="opposite" speed="1.90" pos="0.87" lane="-VODUGES_beg_0" slope="0.00"/>
        <vehicle id="oncoming2_1" x="199.14" y="1.65" angle="270.00" type="opposite" speed="1.82" pos="0.86" lane="gneE1_0" slope="0.00"/>
        <vehicle id="stopped" x="40.86" y="28.35" angle="90.00" type="DEFAULT_VEHTYPE" speed="1.87" pos="40.86" lane="VODUGES_beg_0" slope="0.00"/>
        <vehicle id="stopped_1" x="40.88" y="-1.65" angle="90.00" type="DEFAULT_VEHTYPE" speed="1.92" pos="40.88" lane="gneE0_0" slope="0.00"/>
    </timestep>
    <timestep time="0.90">
        <vehicle id="oncoming1" x="98.93" y="31.65" angle="270.00" type="opposite" speed="2.08" pos="101.07" lane="-VODUGES_beg_0" slope="0.00"/>
        <vehicle id="oncoming1_1" x="98.92" y="1.65" angle="270.00" type="opposite" speed="2.08" pos="101.08" lane="gneE1_0" slope="0.00"/>
        <vehicle id="oncoming2" x="198.92" y="31.65" angle="270.00" type="opposite" speed="2.09" pos="1.08" lane="-VODUGES_beg_0" slope="0.00"/>
        <vehicle id="oncoming2_1" x="198.94" y="1.65" angle="270.00" type="opposite" speed="1.98" pos="1.06" lane="gneE1_0" slope="0.00"/>
        <vehicle id="stopped" x="41.07" y="28.35" angle="90.00" type="DEFAULT_VEHTYPE" speed="2.12" pos="41.07" lane="VODUGES_beg_0" slope="0.00"/>
        <vehicle id="stopped_1" x="41.09" y="-1.65" angle="90.00" type="DEFAULT_VEHTYPE" speed="2.11" pos="41.09" lane="gneE0_0" slope="0.00"/>
    </timestep>
    <timestep time="1.00">
        <vehicle id="oncoming1" x="98.70" y="31.65" angle="270.00" type="opposite" speed="2.30" pos="101.30" lane="-VODUGES_beg_0" slope="0.00"/>
        <vehicle id="oncoming1_1" x="98.69" y="1.65" angle="270.00" type="opposite" speed="2.32" pos="101.31" lane="gneE1_0" slope="0.00"/>
        <vehicle id="oncoming2" x="198.69" y="31.65" angle="270.00" type="opposite" speed="2.29" pos="1.31" lane="-VODUGES_beg_0" slope="0.00"/>
        <vehicle id="oncoming2_1" x="198.73" y="1.65" angle="270.00" type="opposite" speed="2.14" pos="1.27" lane="gneE1_0" slope="0.00"/>
        <vehicle id="overtaking" x="0.00" y="28.35" angle="90.00" type="DEFAULT_VEHTYPE" speed="0.00" pos="0.00" lane="VODUGES_beg_0" slope="0.00"/>
        <vehicle id="overtaking_1" x="0.00" y="-1.65" angle="90.00" type="DEFAULT_VEHTYPE" speed="0.00" pos="0.00" lane="gneE0_0" slope="0.00"/>
        <vehicle id="stopped" x="41.30" y="28.35" angle="90.00" type="DEFAULT_VEHTYPE" speed="2.27" pos="41.30" lane="VODUGES_beg_0" slope="0.00"/>
        <vehicle id="stopped_1" x="41.32" y="-1.65" angle="90.00" type="DEFAULT_VEHTYPE" speed="2.30" pos="41.32" lane="gneE0_0" slope="0.00"/>
    </timestep>
    <timestep time="1.10">
        <vehicle id="oncoming1" x="98.45" y="31.65" angle="270.00" type="opposite" speed="2.54" pos="101.55" lane="-VODUGES_beg_0" slope="0.00"/>
        <vehicle id="oncoming1_1" x="98.44" y="1.65" angle="270.00" type="opposite" speed="2.46" pos="101.56" lane="gneE1_0" slope="0.00"/>
        <vehicle id="oncoming2" x="198.44" y="31.65" angle="270.00" type="opposite" speed="2.54" pos="1.56" lane="-VODUGES_beg_0" slope="0.00"/>
        <vehicle id="oncoming2_1" x="198.49" y="1.65" angle="270.00" type="opposite" speed="2.39" pos="1.51" lane="gneE1_0" slope="0.00"/>
        <vehicle id="overtaking" x="0.03" y="28.35" angle="90.00" type="DEFAULT_VEHTYPE" speed="0.25" pos="0.03" lane="VODUGES_beg_0" slope="0.00"/>
        <vehicle id="overtaking_1" x="0.03" y="-1.65" angle="90.00" type="DEFAULT_VEHTYPE" speed="0.25" pos="0.03" lane="gneE0_0" slope="0.00"/>
        <vehicle id="stopped" x="41.55" y="28.35" angle="90.00" type="DEFAULT_VEHTYPE" speed="2.51" pos="41.55" lane="VODUGES_beg_0" slope="0.00"/>
        <vehicle id="stopped_1" x="41.57" y="-1.65" angle="90.00" type="DEFAULT_VEHTYPE" speed="2.53" pos="41.57" lane="gneE0_0" slope="0.00"/>
    </timestep>
    <timestep time="1.20">
        <vehicle id="oncoming1" x="98.17" y="31.65" angle="270.00" type="opposite" speed="2.76" pos="101.83" lane="-VODUGES_beg_0" slope="0.00"/>
        <vehicle id="oncoming1_1" x="98.17" y="1.65" angle="270.00" type="opposite" speed="2.69" pos="101.83" lane="gneE1_0" slope="0.00"/>
        <vehicle id="oncoming2" x="198.16" y="31.65" angle="270.00" type="opposite" speed="2.76" pos="1.84" lane="-VODUGES_beg_0" slope="0.00"/>
        <vehicle id="oncoming2_1" x="198.23" y="1.65" angle="270.00" type="opposite" speed="2.62" pos="1.77" lane="gneE1_0" slope="0.00"/>
        <vehicle id="overtaking" x="0.07" y="28.35" angle="90.00" type="DEFAULT_VEHTYPE" speed="0.49" pos="0.07" lane="VODUGES_beg_0" slope="0.00"/>
        <vehicle id="overtaking_1" x="0.08" y="-1.65" angle="90.00" type="DEFAULT_VEHTYPE" speed="0.50" pos="0.08" lane="gneE0_0" slope="0.00"/>
        <vehicle id="stopped" x="41.82" y="28.35" angle="90.00" type="DEFAULT_VEHTYPE" speed="2.74" pos="41.82" lane="VODUGES_beg_0" slope="0.00"/>
        <vehicle id="stopped_1" x="41.85" y="-1.65" angle="90.00" type="DEFAULT_VEHTYPE" speed="2.77" pos="41.85" lane="gneE0_0" slope="0.00"/>
    </timestep>
    <timestep time="1.30">
        <vehicle id="oncoming1" x="97.88" y="31.65" angle="270.00" type="opposite" speed="2.93" pos="102.12" lane="-VODUGES_beg_0" slope="0.00"/>
        <vehicle id="oncoming1_1" x="97.88" y="1.65" angle="270.00" type="opposite" speed="2.86" pos="102.12" lane="gneE1_0" slope="0.00"/>
        <vehicle id="oncoming2" x="197.87" y="31.65" angle="270.00" type="opposite" speed="2.97" pos="2.13" lane="-VODUGES_beg_0" slope="0.00"/>
        <vehicle id="oncoming2_1" x="197.95" y="1.65" angle="270.00" type="opposite" speed="2.83" pos="2.05" lane="gneE1_0" slope="0.00"/>
        <vehicle id="overtaking" x="0.15" y="28.35" angle="90.00" type="DEFAULT_VEHTYPE" speed="0.74" pos="0.15" lane="VODUGES_beg_0" slope="0.00"/>
        <vehicle id="overtaking_1" x="0.15" y="-1.65" angle="90.00" type="DEFAULT_VEHTYPE" speed="0.75" pos="0.15" lane="gneE0_0" slope="0.00"/>
        <vehicle id="stopped" x="42.12" y="28.35" angle="90.00" type="DEFAULT_VEHTYPE" speed="3.00" pos="42.12" lane="VODUGES_beg_0" slope="0.00"/>
        <vehicle id="stopped_1" x="42.15" y="-1.65" angle="90.00" type="DEFAULT_VEHTYPE" speed="3.00" pos="42.15" lane="gneE0_0" slope="0.00"/>
    </timestep>
    <timestep time="1.40">
        <vehicle id="oncoming1" x="97.56" y="31.65" angle="270.00" type="opposite" speed="3.12" pos="102.44" lane="-VODUGES_beg_0" slope="0.00"/>
        <vehicle id="oncoming1_1" x="97.58" y="1.65" angle="270.00" type="opposite" speed="3.07" pos="102.42" lane="gneE1_0" slope="0.00"/>
        <vehicle id="oncoming2" x="197.55" y="31.65" angle="270.00" type="opposite" speed="3.13" pos="2.45" lane="-VODUGES_beg_0" slope="0.00"/>
        <vehicle id="oncoming2_1" x="197.65" y="1.65" angle="270.00" type="opposite" speed="2.96" pos="2.35" lane="gneE1_0" slope="0.00"/>
        <vehicle id="overtaking" x="0.25" y="28.35" angle="90.00" type="DEFAULT_VEHTYPE" speed="0.98" pos="0.25" lane="VODUGES_beg_0" slope="0.00"/>
        <vehicle id="overtaking_1" x="0.25" y="-1.65" angle="90.00" type="DEFAULT_VEHTYPE" speed="0.99" pos="0.25" lane="gneE0_0" slope="0.00"/>
        <vehicle id="stopped" x="42.44" y="28.35" angle="90.00" type="DEFAULT_VEHTYPE" speed="3.18" pos="42.44" lane="VODUGES_beg_0" slope="0.00"/>
        <vehicle id="stopped_1" x="42.47" y="-1.65" angle="90.00" type="DEFAULT_VEHTYPE" speed="3.18" pos="42.47" lane="gneE0_0" slope="0.00"/>
    </timestep>
    <timestep time="1.50">
        <vehicle id="oncoming1" x="97.23" y="31.65" angle="270.00" type="opposite" speed="3.37" pos="102.77" lane="-VODUGES_beg_0" slope="0.00"/>
        <vehicle id="oncoming1_1" x="97.25" y="1.65" angle="270.00" type="opposite" speed="3.27" pos="102.75" lane="gneE1_0" slope="0.00"/>
        <vehicle id="oncoming2" x="197.23" y="31.65" angle="270.00" type="opposite" speed="3.27" pos="2.77" lane="-VODUGES_beg_0" slope="0.00"/>
        <vehicle id="oncoming2_1" x="197.33" y="1.65" angle="270.00" type="opposite" speed="3.17" pos="2.67" lane="gneE1_0" slope="0.00"/>
        <vehicle id="overtaking" x="0.37" y="28.35" angle="90.00" type="DEFAULT_VEHTYPE" speed="1.22" pos="0.37" lane="VODUGES_beg_0" slope="0.00"/>
        <vehicle id="overtaking_1" x="0.37" y="-1.65" angle="90.00" type="DEFAULT_VEHTYPE" speed="1.19" pos="0.37" lane="gneE0_0" slope="0.00"/>
        <vehicle id="stopped" x="42.78" y="28.35" angle="90.00" type="DEFAULT_VEHTYPE" speed="3.43" pos="42.78" lane="VODUGES_beg_0" slope="0.00"/>
        <vehicle id="stopped_1" x="42.80" y="-1.65" angle="90.00" type="DEFAULT_VEHTYPE" speed="3.36" pos="42.80" lane="gneE0_0" slope="0.00"/>
    </timestep>
    <timestep time="1.60">
        <vehicle id="oncoming1" x="96.88" y="31.65" angle="270.00" type="opposite" speed="3.52" pos="103.12" lane="-VODUGES_beg_0" slope="0.00"/>
        <vehicle id="oncoming1_1" x="96.90" y="1.65" angle="270.00" type="opposite" speed="3.48" pos="103.10" lane="gneE1_0" slope="0.00"/>
        <vehicle id="oncoming2" x="196.88" y="31.65" angle="270.00" type="opposite" speed="3.46" pos="3.12" lane="-VODUGES_beg_0" slope="0.00"/>
        <vehicle id="oncoming2_1" x="197.00" y="1.65" angle="270.00" type="opposite" speed="3.38" pos="3.00" lane="gneE1_0" slope="0.00"/>
        <vehicle id="overtaking" x="0.51" y="28.35" angle="90.00" type="DEFAULT_VEHTYPE" speed="1.45" pos="0.51" lane="VODUGES_beg_0" slope="0.00"/>
        <vehicle id="overtaking_1" x="0.51" y="-1.65" angle="90.00" type="DEFAULT_VEHTYPE" speed="1.43" pos="0.51" lane="gneE0_0" slope="0.00"/>
        <vehicle id="stopped" x="43.14" y="28.35" angle="90.00" type="DEFAULT_VEHTYPE" speed="3.60" pos="43.14" lane="VODUGES_beg_0" slope="0.00"/>
        <vehicle id="stopped_1" x="43.15" y="-1.65" angle="90.00" type="DEFAULT_VEHTYPE" speed="3.49" pos="43.15" lane="gneE0_0" slope="0.00"/>
    </timestep>
    <timestep time="1.70">
        <vehicle id="oncoming1" x="96.50" y="31.65" angle="270.00" type="opposite" speed="3.71" pos="103.50" lane="-VODUGES_beg_0" slope="0.00"/>
        <vehicle id="oncoming1_1" x="96.54" y="1.65" angle="270.00" type="opposite" speed="3.64" pos="103.46" lane="gneE1_0" slope="0.00"/>
        <vehicle id="oncoming2" x="196.52" y="31.65" angle="270.00" type="opposite" speed="3.63" pos="3.48" lane="-VODUGES_beg_0" slope="0.00"/>
        <vehicle id="oncoming2_1" x="196.63" y="1.65" angle="270.00" type="opposite" speed="3.63" pos="3.37" lane="gneE1_0" slope="0.00"/>
        <vehicle id="overtaking" x="0.68" y="28.35" angle="90.00" type="DEFAULT_VEHTYPE" speed="1.70" pos="0.68" lane="VODUGES_beg_0" slope="0.00"/>
        <vehicle id="overtaking_1" x="0.68" y="-1.65" angle="90.00" type="DEFAULT_VEHTYPE" speed="1.67" pos="0.68" lane="gneE0_0" slope="0.00"/>
        <vehicle id="stopped" x="43.52" y="28.35" angle="90.00" type="DEFAULT_VEHTYPE" speed="3.77" pos="43.52" lane="VODUGES_beg_0" slope="0.00"/>
        <vehicle id="stopped_1" x="43.52" y="-1.65" angle="90.00" type="DEFAULT_VEHTYPE" speed="3.65" pos="43.52" lane="gneE0_0" slope="0.00"/>
    </timestep>
    <timestep time="1.80">
        <vehicle id="oncoming1" x="96.12" y="31.65" angle="270.00" type="opposite" speed="3.86" pos="103.88" lane="-VODUGES_beg_0" slope="0.00"/>
        <vehicle id="oncoming1_1" x="96.15" y="1.65" angle="270.00" type="opposite" speed="3.85" pos="103.85" lane="gneE1_0" slope="0.00"/>
        <vehicle id="oncoming2" x="196.13" y="31.65" angle="270.00" type="opposite" speed="3.84" pos="3.87" lane="-VODUGES_beg_0" slope="0.00"/>
        <vehicle id="oncoming2_1" x="196.25" y="1.65" angle="270.00" type="opposite" speed="3.80" pos="3.75" lane="gneE1_0" slope="0.00"/>
        <vehicle id="overtaking" x="0.88" y="28.35" angle="90.00" type="DEFAULT_VEHTYPE" speed="1.95" pos="0.88" lane="VODUGES_beg_0" slope="0.00"/>
        <vehicle id="overtaking_1" x="0.87" y="-1.65" angle="90.00" type="DEFAULT_VEHTYPE" speed="1.92" pos="0.87" lane="gneE0_0" slope="0.00"/>
        <vehicle id="stopped" x="43.91" y="28.35" angle="90.00" type="DEFAULT_VEHTYPE" speed="3.94" pos="43.91" lane="VODUGES_beg_0" slope="0.00"/>
        <vehicle id="stopped_1" x="43.90" y="-1.65" angle="90.00" type="DEFAULT_VEHTYPE" speed="3.85" pos="43.90" lane="gneE0_0" slope="0.00"/>
    </timestep>
    <timestep time="1.90">
        <vehicle id="oncoming1" x="95.71" y="31.65" angle="270.00" type="opposite" speed="4.10" pos="104.29" lane="-VODUGES_beg_0" slope="0.00"/>
        <vehicle id="oncoming1_1" x="95.75" y="1.65" angle="270.00" type="opposite" speed="4.06" pos="104.25" lane="gneE1_0" slope="0.00"/>
        <vehicle id="oncoming2" x="195.73" y="31.65" angle="270.00" type="opposite" speed="3.99" pos="4.27" lane="-VODUGES_beg_0" slope="0.00"/>
        <vehicle id="oncoming2_1" x="195.85" y="1.65" angle="270.00" type="opposite" speed="3.98" pos="4.15" lane="gneE1_0" slope="0.00"/>
        <vehicle id="overtaking" x="1.09" y="28.35" angle="90.00" type="DEFAULT_VEHTYPE" speed="2.12" pos="1.09" lane="VODUGES_beg_0" slope="0.00"/>
        <vehicle id="overtaking_1" x="1.08" y="-1.65" angle="90.00" type="DEFAULT_VEHTYPE" speed="2.11" pos="1.08" lane="gneE0_0" slope="0.00"/>
        <vehicle id="stopped" x="44.32" y="28.35" angle="90.00" type="DEFAULT_VEHTYPE" speed="4.07" pos="44.32" lane="VODUGES_beg_0" slope="0.00"/>
        <vehicle id="stopped_1" x="44.31" y="-1.65" angle="90.00" type="DEFAULT_VEHTYPE" speed="4.06" pos="44.31" lane="gneE0_0" slope="0.00"/>
    </timestep>
    <timestep time="2.00">
        <vehicle id="oncoming1" x="95.28" y="31.65" angle="270.00" type="opposite" speed="4.27" pos="104.72" lane="-VODUGES_beg_0" slope="0.00"/>
        <vehicle id="oncoming1_1" x="95.33" y="1.65" angle="270.00" type="opposite" speed="4.21" pos="104.67" lane="gneE1_0" slope="0.00"/>
        <vehicle id="oncoming2" x="195.32" y="31.65" angle="270.00" type="opposite" speed="4.17" pos="4.68" lane="-VODUGES_beg_0" slope="0.00"/>
        <vehicle id="oncoming2_1" x="195.44" y="1.65" angle="270.00" type="opposite" speed="4.16" pos="4.56" lane="gneE1_0" slope="0.00"/>
        <vehicle id="overtaking" x="1.32" y="28.35" angle="90.00" type="DEFAULT_VEHTYPE" speed="2.33" pos="1.32" lane="VODUGES_beg_0" slope="0.00"/>
        <vehicle id="overtaking_1" x="1.32" y="-1.65" angle="90.00" type="DEFAULT_VEHTYPE" speed="2.36" pos="1.32" lane="gneE0_0" slope="0.00"/>
        <vehicle id="stopped" x="44.72" y="28.35" angle="90.00" type="DEFAULT_VEHTYPE" speed="4.02" pos="44.72" lane="VODUGES_beg_0" slope="0.00"/>
        <vehicle id="stopped_1" x="44.71" y="-1.65" angle="90.00" type="DEFAULT_VEHTYPE" speed="3.99" pos="44.71" lane="gneE0_0" slope="0.00"/>
    </timestep>
    <timestep time="2.10">
        <vehicle id="oncoming1" x="94.83" y="31.65" angle="270.00" type="opposite" speed="4.46" pos="105.17" lane="-VODUGES_beg_0" slope="0.00"/>
        <vehicle id="oncoming1_1" x="94.89" y="1.65" angle="270.00" type="opposite" speed="4.40" pos="105.11" lane="gneE1_0" slope="0.00"/>
        <vehicle id="oncoming2" x="194.87" y="31.65" angle="270.00" type="opposite" speed="4.43" pos="5.13" lane="-VODUGES_beg_0" slope="0.00"/>
        <vehicle id="oncoming2_1" x="195.01" y="1.65" angle="270.00" type="opposite" speed="4.30" pos="4.99" lane="gneE1_0" slope="0.00"/>
        <vehicle id="overtaking" x="1.57" y="28.35" angle="90.00" type="DEFAULT_VEHTYPE" speed="2.47" pos="1.57" lane="VODUGES_beg_0" slope="0.00"/>
        <vehicle id="overtaking_1" x="1.57" y="-1.65" angle="90.00" type="DEFAULT_VEHTYPE" speed="2.50" pos="1.57" lane="gneE0_0" slope="0.00"/>
        <vehicle id="stopped" x="45.09" y="28.35" angle="90.00" type="DEFAULT_VEHTYPE" speed="3.73" pos="45.09" lane="VODUGES_beg_0" slope="0.00"/>
        <vehicle id="stopped_1" x="45.08" y="-1.65" angle="90.00" type="DEFAULT_VEHTYPE" speed="3.71" pos="45.08" lane="gneE0_0" slope="0.00"/>
    </timestep>
    <timestep time="2.20">
        <vehicle id="oncoming1" x="94.37" y="31.65" angle="270.00" type="opposite" speed="4.62" pos="105.63" lane="-VODUGES_beg_0" slope="0.00"/>
        <vehicle id="oncoming1_1" x="94.43" y="1.65" angle="270.00" type="opposite" speed="4.58" pos="105.57" lane="gneE1_0" slope="0.00"/>
        <vehicle id="oncoming2" x="194.41" y="31.65" angle="270.00" type="opposite" speed="4.63" pos="5.59" lane="-VODUGES_beg_0" slope="0.00"/>
        <vehicle id="oncoming2_1" x="194.56" y="1.65" angle="270.00" type="opposite" speed="4.44" pos="5.44" lane="gneE1_0" slope="0.00"/>
        <vehicle id="overtaking" x="1.84" y="28.35" angle="90.00" type="DEFAULT_VEHTYPE" speed="2.68" pos="1.84" lane="VODUGES_beg_0" slope="0.00"/>
        <vehicle id="overtaking_1" x="1.84" y="-1.65" angle="90.00" type="DEFAULT_VEHTYPE" speed="2.76" pos="1.84" lane="gneE0_0" slope="0.00"/>
        <vehicle id="stopped" x="45.45" y="28.35" angle="90.00" type="DEFAULT_VEHTYPE" speed="3.60" pos="45.45" lane="VODUGES_beg_0" slope="0.00"/>
        <vehicle id="stopped_1" x="45.44" y="-1.65" angle="90.00" type="DEFAULT_VEHTYPE" speed="3.59" pos="45.44" lane="gneE0_0" slope="0.00"/>
    </timestep>
    <timestep time="2.30">
        <vehicle id="oncoming1" x="93.90" y="31.65" angle="270.00" type="opposite" speed="4.76" pos="106.10" lane="-VODUGES_beg_0" slope="0.00"/>
        <vehicle id="oncoming1_1" x="93.96" y="1.65" angle="270.00" type="opposite" speed="4.73" pos="106.04" lane="gneE1_0" slope="0.00"/>
        <vehicle id="oncoming2" x="193.93" y="31.65" angle="270.00" type="opposite" speed="4.83" pos="6.07" lane="-VODUGES_beg_0" slope="0.00"/>
        <vehicle id="oncoming2_1" x="194.10" y="1.65" angle="270.00" type="opposite" speed="4.65" pos="5.90" lane="gneE1_0" slope="0.00"/>
        <vehicle id="overtaking" x="2.13" y="28.35" angle="90.00" type="DEFAULT_VEHTYPE" speed="2.88" pos="2.13" lane="VODUGES_beg_0" slope="0.00"/>
        <vehicle id="overtaking_1" x="2.13" y="-1.65" angle="90.00" type="DEFAULT_VEHTYPE" speed="2.91" pos="2.13" lane="gneE0_0" slope="0.00"/>
        <vehicle id="stopped" x="45.80" y="28.35" angle="90.00" type="DEFAULT_VEHTYPE" speed="3.41" pos="45.80" lane="VODUGES_beg_0" slope="0.00"/>
        <vehicle id="stopped_1" x="45.78" y="-1.65" angle="90.00" type="DEFAULT_VEHTYPE" speed="3.41" pos="45.78" lane="gneE0_0" slope="0.00"/>
    </timestep>
    <timestep time="2.40">
        <vehicle id="oncoming1" x="93.41" y="31.65" angle="270.00" type="opposite" speed="4.90" pos="106.59" lane="-VODUGES_beg_0" slope="0.00"/>
        <vehicle id="oncoming1_1" x="93.46" y="1.65" angle="270.00" type="opposite" speed="4.95" pos="106.54" lane="gneE1_0" slope="0.00"/>
        <vehicle id="oncoming2" x="193.43" y="31.65" angle="270.00" type="opposite" speed="4.99" pos="6.57" lane="-VODUGES_beg_0" slope="0.00"/>
        <vehicle id="oncoming2_1" x="193.61" y="1.65" angle="270.00" type="opposite" speed="4.88" pos="6.39" lane="gneE1_0" slope="0.00"/>
        <vehicle id="overtaking" x="2.43" y="28.35" angle="90.00" type="DEFAULT_VEHTYPE" speed="3.08" pos="2.43" lane="VODUGES_beg_0" slope="0.00"/>
        <vehicle id="overtaking_1" x="2.44" y="-1.65" angle="90.00" type="DEFAULT_VEHTYPE" speed="3.06" pos="2.44" lane="gneE0_0" slope="0.00"/>
        <vehicle id="stopped" x="46.10" y="28.35" angle="90.00" type="DEFAULT_VEHTYPE" speed="3.08" pos="46.10" lane="VODUGES_beg_0" slope="0.00"/>
        <vehicle id="stopped_1" x="46.09" y="-1.65" angle="90.00" type="DEFAULT_VEHTYPE" speed="3.16" pos="46.09" lane="gneE0_0" slope="0.00"/>
    </timestep>
    <timestep time="2.50">
        <vehicle id="oncoming1" x="92.90" y="31.65" angle="270.00" type="opposite" speed="5.11" pos="107.10" lane="-VODUGES_beg_0" slope="0.00"/>
        <vehicle id="oncoming1_1" x="92.95" y="1.65" angle="270.00" type="opposite" speed="5.10" pos="107.05" lane="gneE1_0" slope="0.00"/>
        <vehicle id="oncoming2" x="192.91" y="31.65" angle="270.00" type="opposite" speed="5.16" pos="7.09" lane="-VODUGES_beg_0" slope="0.00"/>
        <vehicle id="oncoming2_1" x="193.10" y="1.65" angle="270.00" type="opposite" speed="5.12" pos="6.90" lane="gneE1_0" slope="0.00"/>
        <vehicle id="overtaking" x="2.76" y="28.35" angle="90.00" type="DEFAULT_VEHTYPE" speed="3.28" pos="2.76" lane="VODUGES_beg_0" slope="0.00"/>
        <vehicle id="overtaking_1" x="2.77" y="-1.65" angle="90.00" type="DEFAULT_VEHTYPE" speed="3.27" pos="2.77" lane="gneE0_0" slope="0.00"/>
        <vehicle id="stopped" x="46.40" y="28.35" angle="90.00" type="DEFAULT_VEHTYPE" speed="3.01" pos="46.40" lane="VODUGES_beg_0" slope="0.00"/>
        <vehicle id="stopped_1" x="46.39" y="-1.65" angle="90.00" type="DEFAULT_VEHTYPE" speed="2.97" pos="46.39" lane="gneE0_0" slope="0.00"/>
    </timestep>
    <timestep time="2.60">
        <vehicle id="oncoming1" x="92.37" y="31.65" angle="270.00" type="opposite" speed="5.27" pos="107.63" lane="-VODUGES_beg_0" slope="0.00"/>
        <vehicle id="oncoming1_1" x="92.42" y="1.65" angle="270.00" type="opposite" speed="5.33" pos="107.58" lane="gneE1_0" slope="0.00"/>
        <vehicle id="oncoming2" x="192.37" y="31.65" angle="270.00" type="opposite" speed="5.40" pos="7.63" lane="-VODUGES_beg_0" slope="0.00"/>
        <vehicle id="oncoming2_1" x="192.56" y="1.65" angle="270.00" type="opposite" speed="5.36" pos="7.44" lane="gneE1_0" slope="0.00"/>