<?xml version="1.0" encoding="UTF-8"?>

<!-- generated on Thu May 12 15:21:59 2016 by SUMO Version dev-SVN-r20713
<?xml version="1.0" encoding="UTF-8"?>

<configuration xmlns:xsi="http://www.w3.org/2001/XMLSchema-instance" xsi:noNamespaceSchemaLocation="http://sumo.dlr.de/xsd/sumoConfiguration.xsd">

    <input>
        <net-file value="net.net.xml"/>
        <route-files value="input_routes.rou.xml"/>
    </input>

    <output>
        <fcd-output value="fcd.xml"/>
    </output>

    <time>
        <step-length value="0.5"/>
    </time>

    <processing>
        <lanechange.duration value="6"/>
    </processing>

    <report>
        <xml-validation value="never"/>
        <duration-log.disable value="true"/>
        <no-step-log value="true"/>
    </report>

</configuration>
-->

<fcd-export xmlns:xsi="http://www.w3.org/2001/XMLSchema-instance" xsi:noNamespaceSchemaLocation="http://sumo.dlr.de/xsd/fcd_file.xsd">
    <timestep time="0.00">
        <vehicle id="v0" x="346.36" y="495.05" angle="90.00" type="DEFAULT_VEHTYPE" speed="0.00" pos="100.00" lane="1si_1" slope="0.00"/>
    </timestep>
    <timestep time="0.50">
        <vehicle id="v0" x="346.67" y="495.05" angle="90.00" type="DEFAULT_VEHTYPE" speed="1.30" pos="100.33" lane="1si_1" slope="0.00"/>
    </timestep>
    <timestep time="1.00">
        <vehicle id="v0" x="347.59" y="495.05" angle="90.00" type="DEFAULT_VEHTYPE" speed="2.60" pos="101.30" lane="1si_1" slope="0.00"/>
        <vehicle id="v1" x="327.39" y="491.75" angle="90.00" type="thin" speed="0.00" pos="80.00" lane="1si_0" slope="0.00"/>
    </timestep>
    <timestep time="1.50">
        <vehicle id="v0" x="349.13" y="495.05" angle="90.00" type="DEFAULT_VEHTYPE" speed="3.90" pos="102.92" lane="1si_1" slope="0.00"/>
        <vehicle id="v1" x="327.70" y="491.75" angle="90.00" type="thin" speed="1.30" pos="80.33" lane="1si_0" slope="0.00"/>
    </timestep>
    <timestep time="2.00">
        <vehicle id="v0" x="351.29" y="495.05" angle="90.00" type="DEFAULT_VEHTYPE" speed="5.20" pos="105.20" lane="1si_1" slope="0.00"/>
        <vehicle id="v1" x="328.62" y="491.75" angle="90.00" type="thin" speed="2.60" pos="81.30" lane="1si_0" slope="0.00"/>
    </timestep>
    <timestep time="2.50">
        <vehicle id="v0" x="354.07" y="495.05" angle="90.00" type="DEFAULT_VEHTYPE" speed="6.50" pos="108.12" lane="1si_1" slope="0.00"/>
        <vehicle id="v1" x="330.16" y="491.75" angle="90.00" type="thin" speed="3.90" pos="82.92" lane="1si_0" slope="0.00"/>
    </timestep>
    <timestep time="3.00">
        <vehicle id="v0" x="357.46" y="495.05" angle="90.00" type="DEFAULT_VEHTYPE" speed="7.80" pos="111.70" lane="1si_1" slope="0.00"/>
        <vehicle id="v1" x="332.32" y="491.75" angle="90.00" type="thin" speed="5.20" pos="85.20" lane="1si_0" slope="0.00"/>
    </timestep>
    <timestep time="3.50">
        <vehicle id="v0" x="361.47" y="495.05" angle="90.00" type="DEFAULT_VEHTYPE" speed="9.10" pos="115.92" lane="1si_1" slope="0.00"/>
        <vehicle id="v1" x="335.10" y="491.75" angle="90.00" type="thin" speed="6.50" pos="88.12" lane="1si_0" slope="0.00"/>
    </timestep>
    <timestep time="4.00">
        <vehicle id="v0" x="366.09" y="495.05" angle="90.00" type="DEFAULT_VEHTYPE" speed="10.40" pos="120.80" lane="1si_1" slope="0.00"/>
        <vehicle id="v1" x="338.49" y="492.02" angle="89.17" type="thin" speed="7.80" pos="91.70" lane="1si_0" slope="0.00"/>
    </timestep>
    <timestep time="4.50">
        <vehicle id="v0" x="371.33" y="495.05" angle="90.00" type="DEFAULT_VEHTYPE" speed="11.70" pos="126.33" lane="1si_1" slope="0.00"/>
        <vehicle id="v1" x="342.49" y="492.28" angle="88.33" type="thin" speed="9.10" pos="95.92" lane="1si_0" slope="0.00"/>
    </timestep>
    <timestep time="5.00">
        <vehicle id="v0" x="376.64" y="495.05" angle="90.00" type="DEFAULT_VEHTYPE" speed="10.70" pos="131.93" lane="1si_1" slope="0.00"/>
        <vehicle id="v1" x="347.12" y="492.55" angle="87.50" type="thin" speed="10.40" pos="100.80" lane="1si_0" slope="0.00"/>
    </timestep>
    <timestep time="5.50">
        <vehicle id="v0" x="381.29" y="495.05" angle="90.00" type="DEFAULT_VEHTYPE" speed="8.87" pos="136.82" lane="1si_1" slope="0.00"/>
        <vehicle id="v1" x="352.36" y="492.82" angle="86.67" type="thin" speed="11.70" pos="106.33" lane="1si_0" slope="0.00"/>
    </timestep>
    <timestep time="6.00">
        <vehicle id="v0" x="385.08" y="495.05" angle="90.00" type="DEFAULT_VEHTYPE" speed="7.12" pos="140.82" lane="1si_1" slope="0.00"/>
        <vehicle id="v1" x="358.22" y="493.08" angle="85.83" type="thin" speed="13.00" pos="112.50" lane="1si_0" slope="0.00"/>
    </timestep>
    <timestep time="6.50">
        <vehicle id="v0" x="388.06" y="495.05" angle="90.00" type="DEFAULT_VEHTYPE" speed="5.46" pos="143.96" lane="1si_1" slope="0.00"/>
        <vehicle id="v1" x="364.02" y="493.35" angle="85.00" type="thin" speed="11.46" pos="118.62" lane="1si_0" slope="0.00"/>
    </timestep>
    <timestep time="7.00">
        <vehicle id="v0" x="390.29" y="495.05" angle="90.00" type="DEFAULT_VEHTYPE" speed="3.94" pos="146.31" lane="1si_1" slope="0.00"/>
        <vehicle id="v1" x="369.08" y="493.72" angle="85.83" type="thin" speed="9.89" pos="123.95" lane="1si_1" slope="0.00"/>
    </timestep>
    <timestep time="7.50">
        <vehicle id="v0" x="391.84" y="495.05" angle="90.00" type="DEFAULT_VEHTYPE" speed="2.60" pos="147.94" lane="1si_1" slope="0.00"/>
        <vehicle id="v1" x="373.42" y="493.98" angle="86.67" type="thin" speed="8.39" pos="128.52" lane="1si_1" slope="0.00"/>
    </timestep>
    <timestep time="8.00">
        <vehicle id="v0" x="392.82" y="495.05" angle="90.00" type="DEFAULT_VEHTYPE" speed="1.53" pos="148.98" lane="1si_1" slope="0.00"/>
        <vehicle id="v1" x="377.05" y="494.25" angle="87.50" type="thin" speed="6.95" pos="132.36" lane="1si_1" slope="0.00"/>
    </timestep>
    <timestep time="8.50">
        <vehicle id="v0" x="393.36" y="495.05" angle="90.00" type="DEFAULT_VEHTYPE" speed="0.77" pos="149.55" lane="1si_1" slope="0.00"/>
        <vehicle id="v1" x="380.02" y="494.52" angle="88.33" type="thin" speed="5.58" pos="135.49" lane="1si_1" slope="0.00"/>
    </timestep>
    <timestep time="9.00">
        <vehicle id="v0" x="393.62" y="495.05" angle="90.00" type="DEFAULT_VEHTYPE" speed="0.33" pos="149.82" lane="1si_1" slope="0.00"/>
        <vehicle id="v1" x="382.36" y="494.78" angle="89.17" type="thin" speed="4.27" pos="137.95" lane="1si_1" slope="0.00"/>
    </timestep>
    <timestep time="9.50">
        <vehicle id="v0" x="393.73" y="495.05" angle="90.00" type="DEFAULT_VEHTYPE" speed="0.12" pos="149.94" lane="1si_1" slope="0.00"/>
        <vehicle id="v1" x="384.10" y="495.05" angle="90.00" type="thin" speed="3.05" pos="139.78" lane="1si_1" slope="0.00"/>
    </timestep>
    <timestep time="10.00">
        <vehicle id="v0" x="393.77" y="495.05" angle="90.00" type="DEFAULT_VEHTYPE" speed="0.04" pos="149.98" lane="1si_1" slope="0.00"/>
        <vehicle id="v1" x="385.28" y="495.05" angle="90.00" type="thin" speed="1.96" pos="141.03" lane="1si_1" slope="0.00"/>
    </timestep>
    <timestep time="10.50">
        <vehicle id="v0" x="393.78" y="495.05" angle="90.00" type="DEFAULT_VEHTYPE" speed="0.00" pos="149.99" lane="1si_1" slope="0.00"/>
        <vehicle id="v1" x="386.01" y="495.05" angle="90.00" type="thin" speed="1.10" pos="141.79" lane="1si_1" slope="0.00"/>
    </timestep>
    <timestep time="11.00">
        <vehicle id="v0" x="393.78" y="495.05" angle="90.00" type="DEFAULT_VEHTYPE" speed="0.00" pos="149.99" lane="1si_1" slope="0.00"/>
        <vehicle id="v1" x="386.39" y="495.05" angle="90.00" type="thin" speed="0.52" pos="142.20" lane="1si_1" slope="0.00"/>
    </timestep>
    <timestep time="11.50">
        <vehicle id="v0" x="393.78" y="495.05" angle="90.00" type="DEFAULT_VEHTYPE" speed="0.00" pos="149.99" lane="1si_1" slope="0.00"/>
        <vehicle id="v1" x="386.56" y="495.05" angle="90.00" type="thin" speed="0.21" pos="142.38" lane="1si_1" slope="0.00"/>
    </timestep>
    <timestep time="12.00">
        <vehicle id="v0" x="393.78" y="495.05" angle="90.00" type="DEFAULT_VEHTYPE" speed="0.00" pos="149.99" lane="1si_1" slope="0.00"/>
        <vehicle id="v1" x="386.63" y="495.05" angle="90.00" type="thin" speed="0.07" pos="142.45" lane="1si_1" slope="0.00"/>
    </timestep>
    <timestep time="12.50">
        <vehicle id="v0" x="393.78" y="495.05" angle="90.00" type="DEFAULT_VEHTYPE" speed="0.00" pos="149.99" lane="1si_1" slope="0.00"/>
        <vehicle id="v1" x="386.65" y="495.05" angle="90.00" type="thin" speed="0.03" pos="142.47" lane="1si_1" slope="0.00"/>
    </timestep>
    <timestep time="13.00">
        <vehicle id="v0" x="393.78" y="495.05" angle="90.00" type="DEFAULT_VEHTYPE" speed="0.00" pos="149.99" lane="1si_1" slope="0.00"/>
        <vehicle id="v1" x="386.66" y="495.05" angle="90.00" type="thin" speed="0.01" pos="142.48" lane="1si_1" slope="0.00"/>
    </timestep>
    <timestep time="13.50">
        <vehicle id="v0" x="393.78" y="495.05" angle="90.00" type="DEFAULT_VEHTYPE" speed="0.00" pos="149.99" lane="1si_1" slope="0.00"/>
        <vehicle id="v1" x="386.66" y="495.05" angle="90.00" type="thin" speed="0.00" pos="142.49" lane="1si_1" slope="0.00"/>
    </timestep>
    <timestep time="14.00">
        <vehicle id="v0" x="393.78" y="495.05" angle="90.00" type="DEFAULT_VEHTYPE" speed="0.00" pos="149.99" lane="1si_1" slope="0.00"/>
        <vehicle id="v1" x="386.66" y="495.05" angle="90.00" type="thin" speed="0.00" pos="142.49" lane="1si_1" slope="0.00"/>
    </timestep>
    <timestep time="14.50">
        <vehicle id="v0" x="393.78" y="495.05" angle="90.00" type="DEFAULT_VEHTYPE" speed="0.00" pos="149.99" lane="1si_1" slope="0.00"/>
        <vehicle id="v1" x="386.66" y="495.05" angle="90.00" type="thin" speed="0.00" pos="142.49" lane="1si_1" slope="0.00"/>
    </timestep>
    <timestep time="15.00">
        <vehicle id="v0" x="393.78" y="495.05" angle="90.00" type="DEFAULT_VEHTYPE" speed="0.00" pos="149.99" lane="1si_1" slope="0.00"/>
        <vehicle id="v1" x="386.66" y="495.05" angle="90.00" type="thin" speed="0.00" pos="142.49" lane="1si_1" slope="0.00"/>
    </timestep>
    <timestep time="15.50">
        <vehicle id="v0" x="393.78" y="495.05" angle="90.00" type="DEFAULT_VEHTYPE" speed="0.00" pos="149.99" lane="1si_1" slope="0.00"/>
        <vehicle id="v1" x="386.66" y="495.05" angle="90.00" type="thin" speed="0.00" pos="142.49" lane="1si_1" slope="0.00"/>
    </timestep>
    <timestep time="16.00">
        <vehicle id="v0" x="393.78" y="495.05" angle="90.00" type="DEFAULT_VEHTYPE" speed="0.00" pos="149.99" lane="1si_1" slope="0.00"/>
        <vehicle id="v1" x="386.66" y="495.05" angle="90.00" type="thin" speed="0.00" pos="142.49" lane="1si_1" slope="0.00"/>
    </timestep>
    <timestep time="16.50">
        <vehicle id="v0" x="393.78" y="495.05" angle="90.00" type="DEFAULT_VEHTYPE" speed="0.00" pos="149.99" lane="1si_1" slope="0.00"/>
        <vehicle id="v1" x="386.66" y="495.05" angle="90.00" type="thin" speed="0.00" pos="142.49" lane="1si_1" slope="0.00"/>
    </timestep>
    <timestep time="17.00">
        <vehicle id="v0" x="393.78" y="495.05" angle="90.00" type="DEFAULT_VEHTYPE" speed="0.00" pos="149.99" lane="1si_1" slope="0.00"/>
        <vehicle id="v1" x="386.66" y="495.05" angle="90.00" type="thin" speed="0.00" pos="142.49" lane="1si_1" slope="0.00"/>
    </timestep>
    <timestep time="17.50">
        <vehicle id="v0" x="393.78" y="495.05" angle="90.00" type="DEFAULT_VEHTYPE" speed="0.00" pos="149.99" lane="1si_1" slope="0.00"/>
        <vehicle id="v1" x="386.66" y="495.05" angle="90.00" type="thin" speed="0.00" pos="142.49" lane="1si_1" slope="0.00"/>
    </timestep>
    <timestep time="18.00">
        <vehicle id="v0" x="393.78" y="495.05" angle="90.00" type="DEFAULT_VEHTYPE" speed="0.00" pos="149.99" lane="1si_1" slope="0.00"/>
        <vehicle id="v1" x="386.66" y="495.05" angle="90.00" type="thin" speed="0.00" pos="142.49" lane="1si_1" slope="0.00"/>
    </timestep>
    <timestep time="18.50">
        <vehicle id="v0" x="393.78" y="495.05" angle="90.00" type="DEFAULT_VEHTYPE" speed="0.00" pos="149.99" lane="1si_1" slope="0.00"/>
        <vehicle id="v1" x="386.66" y="495.05" angle="90.00" type="thin" speed="0.00" pos="142.49" lane="1si_1" slope="0.00"/>
    </timestep>
    <timestep time="19.00">
        <vehicle id="v0" x="393.78" y="495.05" angle="90.00" type="DEFAULT_VEHTYPE" speed="0.00" pos="149.99" lane="1si_1" slope="0.00"/>
        <vehicle id="v1" x="386.66" y="495.05" angle="90.00" type="thin" speed="0.00" pos="142.49" lane="1si_1" slope="0.00"/>
    </timestep>
    <timestep time="19.50">
        <vehicle id="v0" x="393.78" y="495.05" angle="90.00" type="DEFAULT_VEHTYPE" speed="0.00" pos="149.99" lane="1si_1" slope="0.00"/>
        <vehicle id="v1" x="386.66" y="495.05" angle="90.00" type="thin" speed="0.00" pos="142.49" lane="1si_1" slope="0.00"/>
    </timestep>
    <timestep time="20.00">
        <vehicle id="v0" x="393.78" y="495.05" angle="90.00" type="DEFAULT_VEHTYPE" speed="0.00" pos="149.99" lane="1si_1" slope="0.00"/>
        <vehicle id="v1" x="386.66" y="494.78" angle="90.83" type="thin" speed="0.00" pos="142.49" lane="1si_1" slope="0.00"/>
    </timestep>
    <timestep time="20.50">
        <vehicle id="v0" x="393.78" y="495.05" angle="90.00" type="DEFAULT_VEHTYPE" speed="0.00" pos="149.99" lane="1si_1" slope="0.00"/>
        <vehicle id="v1" x="386.66" y="494.52" angle="91.67" type="thin" speed="0.00" pos="142.49" lane="1si_1" slope="0.00"/>
    </timestep>
    <timestep time="21.00">
        <vehicle id="v0" x="393.78" y="495.05" angle="90.00" type="DEFAULT_VEHTYPE" speed="0.00" pos="149.99" lane="1si_1" slope="0.00"/>
        <vehicle id="v1" x="386.66" y="494.25" angle="92.50" type="thin" speed="0.00" pos="142.49" lane="1si_1" slope="0.00"/>
    </timestep>
    <timestep time="21.50">
        <vehicle id="v0" x="393.78" y="495.05" angle="90.00" type="DEFAULT_VEHTYPE" speed="0.00" pos="149.99" lane="1si_1" slope="0.00"/>
        <vehicle id="v1" x="386.66" y="493.98" angle="93.33" type="thin" speed="0.00" pos="142.49" lane="1si_1" slope="0.00"/>
    </timestep>
    <timestep time="22.00">
        <vehicle id="v0" x="393.78" y="495.05" angle="90.00" type="DEFAULT_VEHTYPE" speed="0.00" pos="149.99" lane="1si_1" slope="0.00"/>
        <vehicle id="v1" x="386.66" y="493.72" angle="94.17" type="thin" speed="0.00" pos="142.49" lane="1si_1" slope="0.00"/>
    </timestep>
    <timestep time="22.50">
        <vehicle id="v0" x="393.78" y="495.05" angle="90.00" type="DEFAULT_VEHTYPE" speed="0.00" pos="149.99" lane="1si_1" slope="0.00"/>
        <vehicle id="v1" x="386.66" y="493.45" angle="95.00" type="thin" speed="0.00" pos="142.49" lane="1si_1" slope="0.00"/>
    </timestep>
    <timestep time="23.00">
        <vehicle id="v0" x="393.78" y="495.05" angle="90.00" type="DEFAULT_VEHTYPE" speed="0.00" pos="149.99" lane="1si_1" slope="0.00"/>
        <vehicle id="v1" x="386.66" y="493.08" angle="94.17" type="thin" speed="0.00" pos="142.49" lane="1si_0" slope="0.00"/>
    </timestep>
    <timestep time="23.50">
        <vehicle id="v0" x="393.78" y="495.05" angle="90.00" type="DEFAULT_VEHTYPE" speed="0.00" pos="149.99" lane="1si_1" slope="0.00"/>
        <vehicle id="v1" x="386.66" y="492.82" angle="93.33" type="thin" speed="0.00" pos="142.49" lane="1si_0" slope="0.00"/>
    </timestep>
    <timestep time="24.00">
        <vehicle id="v0" x="393.78" y="495.05" angle="90.00" type="DEFAULT_VEHTYPE" speed="0.00" pos="149.99" lane="1si_1" slope="0.00"/>
        <vehicle id="v1" x="386.97" y="492.55" angle="92.50" type="thin" speed="1.30" pos="142.81" lane="1si_0" slope="0.00"/>
    </timestep>
    <timestep time="24.50">
        <vehicle id="v0" x="393.78" y="495.05" angle="90.00" type="DEFAULT_VEHTYPE" speed="0.00" pos="149.99" lane="1si_1" slope="0.00"/>
        <vehicle id="v1" x="387.90" y="492.28" angle="91.67" type="thin" speed="2.60" pos="143.79" lane="1si_0" slope="0.00"/>
    </timestep>
    <timestep time="25.00">
        <vehicle id="v0" x="393.78" y="495.05" angle="90.00" type="DEFAULT_VEHTYPE" speed="0.00" pos="149.99" lane="1si_1" slope="0.00"/>
        <vehicle id="v1" x="389.44" y="492.02" angle="90.83" type="thin" speed="3.90" pos="145.41" lane="1si_0" slope="0.00"/>
    </timestep>
    <timestep time="25.50">
        <vehicle id="v0" x="393.78" y="495.05" angle="90.00" type="DEFAULT_VEHTYPE" speed="0.02" pos="149.99" lane="1si_1" slope="0.00"/>
        <vehicle id="v1" x="391.60" y="491.75" angle="90.00" type="thin" speed="5.20" pos="147.69" lane="1si_0" slope="0.00"/>
    </timestep>
    <timestep time="26.00">
        <vehicle id="v0" x="394.10" y="495.32" angle="89.17" type="DEFAULT_VEHTYPE" speed="1.32" pos="150.32" lane="1si_1" slope="0.00"/>
        <vehicle id="v1" x="394.37" y="491.75" angle="90.00" type="thin" speed="6.50" pos="150.61" lane="1si_0" slope="0.00"/>
    </timestep>
    <timestep time="26.50">
        <vehicle id="v0" x="395.03" y="495.58" angle="88.33" type="DEFAULT_VEHTYPE" speed="2.62" pos="151.31" lane="1si_1" slope="0.00"/>
        <vehicle id="v1" x="397.76" y="491.75" angle="90.00" type="thin" speed="7.80" pos="154.19" lane="1si_0" slope="0.00"/>
    </timestep>
    <timestep time="27.00">
        <vehicle id="v0" x="396.58" y="495.85" angle="87.50" type="DEFAULT_VEHTYPE" speed="3.92" pos="152.94" lane="1si_1" slope="0.00"/>
        <vehicle id="v1" x="401.77" y="491.75" angle="90.00" type="thin" speed="9.10" pos="158.41" lane="1si_0" slope="0.00"/>
    </timestep>
    <timestep time="27.50">
        <vehicle id="v0" x="398.75" y="496.12" angle="86.67" type="DEFAULT_VEHTYPE" speed="5.22" pos="155.22" lane="1si_1" slope="0.00"/>
        <vehicle id="v1" x="406.39" y="492.02" angle="89.17" type="thin" speed="10.40" pos="163.29" lane="1si_0" slope="0.00"/>
    </timestep>
    <timestep time="28.00">
        <vehicle id="v0" x="401.53" y="496.38" angle="85.83" type="DEFAULT_VEHTYPE" speed="6.52" pos="158.16" lane="1si_1" slope="0.00"/>
        <vehicle id="v1" x="411.63" y="492.28" angle="88.33" type="thin" speed="11.70" pos="168.81" lane="1si_0" slope="0.00"/>
    </timestep>
    <timestep time="28.50">
        <vehicle id="v0" x="404.93" y="496.65" angle="85.00" type="DEFAULT_VEHTYPE" speed="7.82" pos="161.74" lane="1si_1" slope="0.00"/>
        <vehicle id="v1" x="417.49" y="492.55" angle="87.50" type="thin" speed="13.00" pos="174.99" lane="1si_0" slope="0.00"/>
    </timestep>
    <timestep time="29.00">
        <vehicle id="v0" x="408.94" y="497.02" angle="85.83" type="DEFAULT_VEHTYPE" speed="9.12" pos="165.97" lane="1si_2" slope="0.00"/>
        <vehicle id="v1" x="423.87" y="492.82" angle="86.67" type="thin" speed="13.89" pos="181.71" lane="1si_0" slope="0.00"/>
    </timestep>
    <timestep time="29.50">
        <vehicle id="v0" x="413.57" y="497.28" angle="86.67" type="DEFAULT_VEHTYPE" speed="10.42" pos="170.86" lane="1si_2" slope="0.00"/>
        <vehicle id="v1" x="430.46" y="493.08" angle="85.83" type="thin" speed="13.89" pos="188.65" lane="1si_0" slope="0.00"/>
    </timestep>
    <timestep time="30.00">
        <vehicle id="v0" x="418.82" y="497.55" angle="87.50" type="DEFAULT_VEHTYPE" speed="11.72" pos="176.39" lane="1si_2" slope="0.00"/>
        <vehicle id="v1" x="437.05" y="493.35" angle="85.00" type="thin" speed="13.89" pos="195.60" lane="1si_0" slope="0.00"/>
    </timestep>
    <timestep time="30.50">
        <vehicle id="v0" x="424.69" y="497.82" angle="88.33" type="DEFAULT_VEHTYPE" speed="13.02" pos="182.57" lane="1si_2" slope="0.00"/>
        <vehicle id="v1" x="443.63" y="493.72" angle="85.83" type="thin" speed="13.89" pos="202.54" lane="1si_1" slope="0.00"/>
    </timestep>
    <timestep time="31.00">
        <vehicle id="v0" x="431.07" y="498.08" angle="89.17" type="DEFAULT_VEHTYPE" speed="13.89" pos="189.30" lane="1si_2" slope="0.00"/>
        <vehicle id="v1" x="450.22" y="493.98" angle="86.67" type="thin" speed="13.89" pos="209.49" lane="1si_1" slope="0.00"/>
    </timestep>
    <timestep time="31.50">
        <vehicle id="v0" x="437.66" y="498.35" angle="90.00" type="DEFAULT_VEHTYPE" speed="13.89" pos="196.24" lane="1si_2" slope="0.00"/>
        <vehicle id="v1" x="456.81" y="494.25" angle="87.50" type="thin" speed="13.89" pos="216.43" lane="1si_1" slope="0.00"/>
    </timestep>
    <timestep time="32.00">
        <vehicle id="v0" x="444.24" y="498.35" angle="90.00" type="DEFAULT_VEHTYPE" speed="13.89" pos="203.19" lane="1si_2" slope="0.00"/>
        <vehicle id="v1" x="463.40" y="494.52" angle="88.33" type="thin" speed="13.89" pos="223.38" lane="1si_1" slope="0.00"/>
    </timestep>
    <timestep time="32.50">
        <vehicle id="v0" x="450.37" y="498.08" angle="90.83" type="DEFAULT_VEHTYPE" speed="11.95" pos="209.65" lane="1si_2" slope="0.00"/>
        <vehicle id="v1" x="469.99" y="494.78" angle="89.17" type="thin" speed="13.89" pos="230.32" lane="1si_1" slope="0.00"/>
    </timestep>
    <timestep time="33.00">
        <vehicle id="v0" x="455.94" y="497.82" angle="91.67" type="DEFAULT_VEHTYPE" speed="11.55" pos="215.52" lane="1si_2" slope="0.00"/>
        <vehicle id="v1" x="476.57" y="495.05" angle="90.00" type="thin" speed="13.89" pos="237.27" lane="1si_1" slope="0.00"/>
    </timestep>
    <timestep time="33.50">
        <vehicle id="v0" x="461.73" y="497.55" angle="92.50" type="DEFAULT_VEHTYPE" speed="12.85" pos="221.62" lane="1si_2" slope="0.00"/>
        <vehicle id="v1" x="483.16" y="495.05" angle="90.00" type="thin" speed="13.89" pos="244.21" lane="1si_1" slope="0.00"/>
    </timestep>
    <timestep time="34.00">
        <vehicle id="v0" x="468.07" y="497.28" angle="93.33" type="DEFAULT_VEHTYPE" speed="13.89" pos="228.31" lane="1si_2" slope="0.00"/>
    </timestep>
    <timestep time="34.50">
        <vehicle id="v0" x="474.66" y="497.02" angle="94.17" type="DEFAULT_VEHTYPE" speed="13.89" pos="235.25" lane="1si_2" slope="0.00"/>
    </timestep>
    <timestep time="35.00">
        <vehicle id="v0" x="481.25" y="496.75" angle="95.00" type="DEFAULT_VEHTYPE" speed="13.89" pos="242.20" lane="1si_2" slope="0.00"/>
    </timestep>
    <timestep time="35.50">
        <vehicle id="v0" x="487.84" y="496.38" angle="94.17" type="DEFAULT_VEHTYPE" speed="13.89" pos="249.14" lane="1si_1" slope="0.00"/>
    </timestep>
    <timestep time="36.00"/>
</fcd-export>
