<?xml version="1.0" encoding="UTF-8"?>

<!-- generated on Tue Apr  5 13:45:18 2016 by SUMO Version dev-SVN-r20343
<?xml version="1.0" encoding="UTF-8"?>

<configuration xmlns:xsi="http://www.w3.org/2001/XMLSchema-instance" xsi:noNamespaceSchemaLocation="http://sumo.dlr.de/xsd/sumoConfiguration.xsd">

    <input>
        <net-file value="net.net.xml"/>
        <route-files value="input_routes.rou.xml"/>
    </input>

    <output>
        <fcd-output value="fcd.xml"/>
    </output>

    <time>
        <step-length value="0.5"/>
    </time>

    <processing>
        <lanechange.duration value="6"/>
    </processing>

    <report>
        <xml-validation value="never"/>
        <duration-log.disable value="true"/>
        <no-step-log value="true"/>
    </report>

</configuration>
-->

<fcd-export xmlns:xsi="http://www.w3.org/2001/XMLSchema-instance" xsi:noNamespaceSchemaLocation="http://sumo.dlr.de/xsd/fcd_file.xsd">
    <timestep time="0.00">
        <vehicle id="v0" x="346.36" y="495.05" angle="90.00" type="DEFAULT_VEHTYPE" speed="0.00" pos="100.00" lane="1si_1" slope="0.00"/>
    </timestep>
    <timestep time="0.50">
        <vehicle id="v0" x="346.67" y="495.05" angle="90.00" type="DEFAULT_VEHTYPE" speed="1.30" pos="100.33" lane="1si_1" slope="0.00"/>
    </timestep>
    <timestep time="1.00">
        <vehicle id="v0" x="347.59" y="495.05" angle="90.00" type="DEFAULT_VEHTYPE" speed="2.60" pos="101.30" lane="1si_1" slope="0.00"/>
        <vehicle id="v1" x="327.39" y="491.75" angle="90.00" type="thin" speed="0.00" pos="80.00" lane="1si_0" slope="0.00"/>
    </timestep>
    <timestep time="1.50">
        <vehicle id="v0" x="349.13" y="495.05" angle="90.00" type="DEFAULT_VEHTYPE" speed="3.90" pos="102.92" lane="1si_1" slope="0.00"/>
        <vehicle id="v1" x="327.70" y="491.75" angle="90.00" type="thin" speed="1.30" pos="80.33" lane="1si_0" slope="0.00"/>
    </timestep>
    <timestep time="2.00">
        <vehicle id="v0" x="351.29" y="495.05" angle="90.00" type="DEFAULT_VEHTYPE" speed="5.20" pos="105.20" lane="1si_1" slope="0.00"/>
        <vehicle id="v1" x="328.62" y="491.75" angle="90.00" type="thin" speed="2.60" pos="81.30" lane="1si_0" slope="0.00"/>
    </timestep>
    <timestep time="2.50">
        <vehicle id="v0" x="354.07" y="495.05" angle="90.00" type="DEFAULT_VEHTYPE" speed="6.50" pos="108.12" lane="1si_1" slope="0.00"/>
        <vehicle id="v1" x="330.16" y="491.75" angle="90.00" type="thin" speed="3.90" pos="82.92" lane="1si_0" slope="0.00"/>
    </timestep>
    <timestep time="3.00">
        <vehicle id="v0" x="357.46" y="495.05" angle="90.00" type="DEFAULT_VEHTYPE" speed="7.80" pos="111.70" lane="1si_1" slope="0.00"/>
        <vehicle id="v1" x="332.32" y="491.75" angle="90.00" type="thin" speed="5.20" pos="85.20" lane="1si_0" slope="0.00"/>
    </timestep>
    <timestep time="3.50">
        <vehicle id="v0" x="361.47" y="495.05" angle="90.00" type="DEFAULT_VEHTYPE" speed="9.10" pos="115.92" lane="1si_1" slope="0.00"/>
        <vehicle id="v1" x="335.10" y="491.75" angle="90.00" type="thin" speed="6.50" pos="88.12" lane="1si_0" slope="0.00"/>
    </timestep>
    <timestep time="4.00">
        <vehicle id="v0" x="366.09" y="495.05" angle="90.00" type="DEFAULT_VEHTYPE" speed="10.40" pos="120.80" lane="1si_1" slope="0.00"/>
        <vehicle id="v1" x="338.49" y="492.02" angle="89.17" type="thin" speed="7.80" pos="91.70" lane="1si_0" slope="0.00"/>
    </timestep>
    <timestep time="4.50">
        <vehicle id="v0" x="371.33" y="495.05" angle="90.00" type="DEFAULT_VEHTYPE" speed="11.70" pos="126.33" lane="1si_1" slope="0.00"/>
        <vehicle id="v1" x="342.49" y="492.30" angle="88.33" type="thin" speed="9.10" pos="95.92" lane="1si_0" slope="0.00"/>
    </timestep>
    <timestep time="5.00">
        <vehicle id="v0" x="376.64" y="495.05" angle="90.00" type="DEFAULT_VEHTYPE" speed="10.70" pos="131.93" lane="1si_1" slope="0.00"/>
        <vehicle id="v1" x="347.12" y="492.57" angle="87.50" type="thin" speed="10.40" pos="100.80" lane="1si_0" slope="0.00"/>
    </timestep>
    <timestep time="5.50">
        <vehicle id="v0" x="381.29" y="495.05" angle="90.00" type="DEFAULT_VEHTYPE" speed="8.87" pos="136.82" lane="1si_1" slope="0.00"/>
        <vehicle id="v1" x="352.36" y="492.85" angle="86.67" type="thin" speed="11.70" pos="106.33" lane="1si_0" slope="0.00"/>
    </timestep>
    <timestep time="6.00">
        <vehicle id="v0" x="385.08" y="495.05" angle="90.00" type="DEFAULT_VEHTYPE" speed="7.12" pos="140.82" lane="1si_1" slope="0.00"/>
        <vehicle id="v1" x="358.22" y="493.12" angle="85.83" type="thin" speed="13.00" pos="112.50" lane="1si_0" slope="0.00"/>
    </timestep>
    <timestep time="6.50">
        <vehicle id="v0" x="388.06" y="495.05" angle="90.00" type="DEFAULT_VEHTYPE" speed="5.46" pos="143.96" lane="1si_1" slope="0.00"/>
        <vehicle id="v1" x="364.02" y="493.40" angle="85.00" type="thin" speed="11.46" pos="118.62" lane="1si_0" slope="0.00"/>
    </timestep>
    <timestep time="7.00">
        <vehicle id="v0" x="390.29" y="495.05" angle="90.00" type="DEFAULT_VEHTYPE" speed="3.94" pos="146.31" lane="1si_1" slope="0.00"/>
        <vehicle id="v1" x="369.08" y="493.68" angle="85.83" type="thin" speed="9.89" pos="123.95" lane="1si_1" slope="0.00"/>
    </timestep>
    <timestep time="7.50">
        <vehicle id="v0" x="391.84" y="495.05" angle="90.00" type="DEFAULT_VEHTYPE" speed="2.60" pos="147.94" lane="1si_1" slope="0.00"/>
        <vehicle id="v1" x="373.42" y="493.95" angle="86.67" type="thin" speed="8.39" pos="128.52" lane="1si_1" slope="0.00"/>
    </timestep>
    <timestep time="8.00">
        <vehicle id="v0" x="392.82" y="495.05" angle="90.00" type="DEFAULT_VEHTYPE" speed="1.53" pos="148.98" lane="1si_1" slope="0.00"/>
        <vehicle id="v1" x="377.05" y="494.23" angle="87.50" type="thin" speed="6.95" pos="132.36" lane="1si_1" slope="0.00"/>
    </timestep>
    <timestep time="8.50">
        <vehicle id="v0" x="393.18" y="495.05" angle="90.00" type="DEFAULT_VEHTYPE" speed="0.00" pos="149.36" lane="1si_1" slope="0.00"/>
        <vehicle id="v1" x="380.02" y="494.50" angle="88.33" type="thin" speed="5.58" pos="135.49" lane="1si_1" slope="0.00"/>
    </timestep>
    <timestep time="9.00">
        <vehicle id="v0" x="393.18" y="495.05" angle="90.00" type="DEFAULT_VEHTYPE" speed="0.00" pos="149.36" lane="1si_1" slope="0.00"/>
        <vehicle id="v1" x="382.32" y="494.78" angle="89.17" type="thin" speed="4.12" pos="137.91" lane="1si_1" slope="0.00"/>
    </timestep>
    <timestep time="9.50">
        <vehicle id="v0" x="393.18" y="495.05" angle="90.00" type="DEFAULT_VEHTYPE" speed="0.00" pos="149.36" lane="1si_1" slope="0.00"/>
        <vehicle id="v1" x="383.95" y="495.05" angle="90.00" type="thin" speed="2.76" pos="139.63" lane="1si_1" slope="0.00"/>
    </timestep>
    <timestep time="10.00">
        <vehicle id="v0" x="393.18" y="495.05" angle="90.00" type="DEFAULT_VEHTYPE" speed="0.00" pos="149.36" lane="1si_1" slope="0.00"/>
        <vehicle id="v1" x="385.00" y="495.05" angle="90.00" type="thin" speed="1.65" pos="140.73" lane="1si_1" slope="0.00"/>
    </timestep>
    <timestep time="10.50">
        <vehicle id="v0" x="393.18" y="495.05" angle="90.00" type="DEFAULT_VEHTYPE" speed="0.00" pos="149.36" lane="1si_1" slope="0.00"/>
        <vehicle id="v1" x="385.59" y="495.05" angle="90.00" type="thin" speed="0.84" pos="141.36" lane="1si_1" slope="0.00"/>
    </timestep>
    <timestep time="11.00">
        <vehicle id="v0" x="393.18" y="495.05" angle="90.00" type="DEFAULT_VEHTYPE" speed="0.00" pos="149.36" lane="1si_1" slope="0.00"/>
        <vehicle id="v1" x="385.88" y="495.05" angle="90.00" type="thin" speed="0.37" pos="141.66" lane="1si_1" slope="0.00"/>
    </timestep>
    <timestep time="11.50">
        <vehicle id="v0" x="393.18" y="495.05" angle="90.00" type="DEFAULT_VEHTYPE" speed="0.00" pos="149.36" lane="1si_1" slope="0.00"/>
        <vehicle id="v1" x="386.00" y="495.05" angle="90.00" type="thin" speed="0.14" pos="141.79" lane="1si_1" slope="0.00"/>
    </timestep>
    <timestep time="12.00">
        <vehicle id="v0" x="393.18" y="495.05" angle="90.00" type="DEFAULT_VEHTYPE" speed="0.00" pos="149.36" lane="1si_1" slope="0.00"/>
        <vehicle id="v1" x="386.04" y="495.05" angle="90.00" type="thin" speed="0.05" pos="141.83" lane="1si_1" slope="0.00"/>
    </timestep>
    <timestep time="12.50">
        <vehicle id="v0" x="393.18" y="495.05" angle="90.00" type="DEFAULT_VEHTYPE" speed="0.00" pos="149.36" lane="1si_1" slope="0.00"/>
        <vehicle id="v1" x="386.06" y="495.05" angle="90.00" type="thin" speed="0.02" pos="141.85" lane="1si_1" slope="0.00"/>
    </timestep>
    <timestep time="13.00">
        <vehicle id="v0" x="393.18" y="495.05" angle="90.00" type="DEFAULT_VEHTYPE" speed="0.00" pos="149.36" lane="1si_1" slope="0.00"/>
        <vehicle id="v1" x="386.06" y="495.05" angle="90.00" type="thin" speed="0.01" pos="141.85" lane="1si_1" slope="0.00"/>
    </timestep>
    <timestep time="13.50">
        <vehicle id="v0" x="393.18" y="495.05" angle="90.00" type="DEFAULT_VEHTYPE" speed="0.00" pos="149.36" lane="1si_1" slope="0.00"/>
        <vehicle id="v1" x="386.06" y="495.05" angle="90.00" type="thin" speed="0.00" pos="141.86" lane="1si_1" slope="0.00"/>
    </timestep>
    <timestep time="14.00">
        <vehicle id="v0" x="393.18" y="495.05" angle="90.00" type="DEFAULT_VEHTYPE" speed="0.00" pos="149.36" lane="1si_1" slope="0.00"/>
        <vehicle id="v1" x="386.07" y="495.05" angle="90.00" type="thin" speed="0.00" pos="141.86" lane="1si_1" slope="0.00"/>
    </timestep>
    <timestep time="14.50">
        <vehicle id="v0" x="393.18" y="495.05" angle="90.00" type="DEFAULT_VEHTYPE" speed="0.00" pos="149.36" lane="1si_1" slope="0.00"/>
        <vehicle id="v1" x="386.07" y="495.05" angle="90.00" type="thin" speed="0.00" pos="141.86" lane="1si_1" slope="0.00"/>
    </timestep>
    <timestep time="15.00">
        <vehicle id="v0" x="393.18" y="495.05" angle="90.00" type="DEFAULT_VEHTYPE" speed="0.00" pos="149.36" lane="1si_1" slope="0.00"/>
        <vehicle id="v1" x="386.07" y="495.05" angle="90.00" type="thin" speed="0.00" pos="141.86" lane="1si_1" slope="0.00"/>
    </timestep>
    <timestep time="15.50">
        <vehicle id="v0" x="393.18" y="495.05" angle="90.00" type="DEFAULT_VEHTYPE" speed="0.00" pos="149.36" lane="1si_1" slope="0.00"/>
        <vehicle id="v1" x="386.07" y="495.05" angle="90.00" type="thin" speed="0.00" pos="141.86" lane="1si_1" slope="0.00"/>
    </timestep>
    <timestep time="16.00">
        <vehicle id="v0" x="393.18" y="495.05" angle="90.00" type="DEFAULT_VEHTYPE" speed="0.00" pos="149.36" lane="1si_1" slope="0.00"/>
        <vehicle id="v1" x="386.07" y="495.05" angle="90.00" type="thin" speed="0.00" pos="141.86" lane="1si_1" slope="0.00"/>
    </timestep>
    <timestep time="16.50">
        <vehicle id="v0" x="393.18" y="495.05" angle="90.00" type="DEFAULT_VEHTYPE" speed="0.00" pos="149.36" lane="1si_1" slope="0.00"/>
        <vehicle id="v1" x="386.07" y="495.05" angle="90.00" type="thin" speed="0.00" pos="141.86" lane="1si_1" slope="0.00"/>
    </timestep>
    <timestep time="17.00">
        <vehicle id="v0" x="393.18" y="495.05" angle="90.00" type="DEFAULT_VEHTYPE" speed="0.00" pos="149.36" lane="1si_1" slope="0.00"/>
        <vehicle id="v1" x="386.07" y="495.05" angle="90.00" type="thin" speed="0.00" pos="141.86" lane="1si_1" slope="0.00"/>
    </timestep>
    <timestep time="17.50">
        <vehicle id="v0" x="393.18" y="495.05" angle="90.00" type="DEFAULT_VEHTYPE" speed="0.00" pos="149.36" lane="1si_1" slope="0.00"/>
        <vehicle id="v1" x="386.07" y="495.05" angle="90.00" type="thin" speed="0.00" pos="141.86" lane="1si_1" slope="0.00"/>
    </timestep>
    <timestep time="18.00">
        <vehicle id="v0" x="393.18" y="495.05" angle="90.00" type="DEFAULT_VEHTYPE" speed="0.00" pos="149.36" lane="1si_1" slope="0.00"/>
        <vehicle id="v1" x="386.07" y="495.05" angle="90.00" type="thin" speed="0.00" pos="141.86" lane="1si_1" slope="0.00"/>
    </timestep>
    <timestep time="18.50">
        <vehicle id="v0" x="393.18" y="495.05" angle="90.00" type="DEFAULT_VEHTYPE" speed="0.00" pos="149.36" lane="1si_1" slope="0.00"/>
        <vehicle id="v1" x="386.07" y="495.05" angle="90.00" type="thin" speed="0.00" pos="141.86" lane="1si_1" slope="0.00"/>
    </timestep>
    <timestep time="19.00">
        <vehicle id="v0" x="393.18" y="495.05" angle="90.00" type="DEFAULT_VEHTYPE" speed="0.00" pos="149.36" lane="1si_1" slope="0.00"/>
        <vehicle id="v1" x="386.07" y="495.05" angle="90.00" type="thin" speed="0.00" pos="141.86" lane="1si_1" slope="0.00"/>
    </timestep>
    <timestep time="19.50">
        <vehicle id="v0" x="393.18" y="495.05" angle="90.00" type="DEFAULT_VEHTYPE" speed="0.00" pos="149.36" lane="1si_1" slope="0.00"/>
        <vehicle id="v1" x="386.07" y="494.78" angle="90.83" type="thin" speed="0.00" pos="141.86" lane="1si_1" slope="0.00"/>
    </timestep>
    <timestep time="20.00">
        <vehicle id="v0" x="393.18" y="495.05" angle="90.00" type="DEFAULT_VEHTYPE" speed="0.00" pos="149.36" lane="1si_1" slope="0.00"/>
        <vehicle id="v1" x="386.07" y="494.50" angle="91.67" type="thin" speed="0.00" pos="141.86" lane="1si_1" slope="0.00"/>
    </timestep>
    <timestep time="20.50">
        <vehicle id="v0" x="393.18" y="495.05" angle="90.00" type="DEFAULT_VEHTYPE" speed="0.00" pos="149.36" lane="1si_1" slope="0.00"/>
        <vehicle id="v1" x="386.07" y="494.23" angle="92.50" type="thin" speed="0.00" pos="141.86" lane="1si_1" slope="0.00"/>
    </timestep>
    <timestep time="21.00">
        <vehicle id="v0" x="393.18" y="495.05" angle="90.00" type="DEFAULT_VEHTYPE" speed="0.00" pos="149.36" lane="1si_1" slope="0.00"/>
        <vehicle id="v1" x="386.07" y="493.95" angle="93.33" type="thin" speed="0.00" pos="141.86" lane="1si_1" slope="0.00"/>
    </timestep>
    <timestep time="21.50">
        <vehicle id="v0" x="393.18" y="495.05" angle="90.00" type="DEFAULT_VEHTYPE" speed="0.00" pos="149.36" lane="1si_1" slope="0.00"/>
        <vehicle id="v1" x="386.07" y="493.68" angle="94.17" type="thin" speed="0.00" pos="141.86" lane="1si_1" slope="0.00"/>
    </timestep>
    <timestep time="22.00">
        <vehicle id="v0" x="393.18" y="495.05" angle="90.00" type="DEFAULT_VEHTYPE" speed="0.00" pos="149.36" lane="1si_1" slope="0.00"/>
        <vehicle id="v1" x="386.07" y="493.40" angle="95.00" type="thin" speed="0.00" pos="141.86" lane="1si_1" slope="0.00"/>
    </timestep>
    <timestep time="22.50">
        <vehicle id="v0" x="393.18" y="495.05" angle="90.00" type="DEFAULT_VEHTYPE" speed="0.00" pos="149.36" lane="1si_1" slope="0.00"/>
        <vehicle id="v1" x="386.07" y="493.12" angle="94.17" type="thin" speed="0.00" pos="141.86" lane="1si_0" slope="0.00"/>
    </timestep>
    <timestep time="23.00">
        <vehicle id="v0" x="393.18" y="495.05" angle="90.00" type="DEFAULT_VEHTYPE" speed="0.00" pos="149.36" lane="1si_1" slope="0.00"/>
        <vehicle id="v1" x="386.07" y="492.85" angle="93.33" type="thin" speed="0.00" pos="141.86" lane="1si_0" slope="0.00"/>
    </timestep>
    <timestep time="23.50">
        <vehicle id="v0" x="393.18" y="495.05" angle="90.00" type="DEFAULT_VEHTYPE" speed="0.00" pos="149.36" lane="1si_1" slope="0.00"/>
        <vehicle id="v1" x="386.37" y="492.57" angle="92.50" type="thin" speed="1.30" pos="142.18" lane="1si_0" slope="0.00"/>
    </timestep>
    <timestep time="24.00">
        <vehicle id="v0" x="393.18" y="495.05" angle="90.00" type="DEFAULT_VEHTYPE" speed="0.00" pos="149.36" lane="1si_1" slope="0.00"/>
        <vehicle id="v1" x="387.30" y="492.30" angle="91.67" type="thin" speed="2.60" pos="143.16" lane="1si_0" slope="0.00"/>
    </timestep>
    <timestep time="24.50">
        <vehicle id="v0" x="393.18" y="495.05" angle="90.00" type="DEFAULT_VEHTYPE" speed="0.00" pos="149.36" lane="1si_1" slope="0.00"/>
        <vehicle id="v1" x="388.84" y="492.02" angle="90.83" type="thin" speed="3.90" pos="144.78" lane="1si_0" slope="0.00"/>
    </timestep>
    <timestep time="25.00">
        <vehicle id="v0" x="393.18" y="495.05" angle="90.00" type="DEFAULT_VEHTYPE" speed="0.00" pos="149.36" lane="1si_1" slope="0.00"/>
        <vehicle id="v1" x="391.00" y="491.75" angle="90.00" type="thin" speed="5.20" pos="147.06" lane="1si_0" slope="0.00"/>
    </timestep>
    <timestep time="25.50">
        <vehicle id="v0" x="393.18" y="495.32" angle="89.17" type="DEFAULT_VEHTYPE" speed="0.00" pos="149.36" lane="1si_1" slope="0.00"/>
        <vehicle id="v1" x="393.77" y="491.75" angle="90.00" type="thin" speed="6.50" pos="149.98" lane="1si_0" slope="0.00"/>
    </timestep>
    <timestep time="26.00">
        <vehicle id="v0" x="393.49" y="495.60" angle="88.33" type="DEFAULT_VEHTYPE" speed="1.30" pos="149.68" lane="1si_1" slope="0.00"/>
        <vehicle id="v1" x="397.16" y="491.75" angle="90.00" type="thin" speed="7.80" pos="153.56" lane="1si_0" slope="0.00"/>
    </timestep>
    <timestep time="26.50">
        <vehicle id="v0" x="394.41" y="495.88" angle="87.50" type="DEFAULT_VEHTYPE" speed="2.60" pos="150.66" lane="1si_1" slope="0.00"/>
        <vehicle id="v1" x="401.17" y="491.75" angle="90.00" type="thin" speed="9.10" pos="157.78" lane="1si_0" slope="0.00"/>
    </timestep>
    <timestep time="27.00">
        <vehicle id="v0" x="395.96" y="496.15" angle="86.67" type="DEFAULT_VEHTYPE" speed="3.90" pos="152.28" lane="1si_1" slope="0.00"/>
        <vehicle id="v1" x="405.80" y="492.02" angle="89.17" type="thin" speed="10.40" pos="162.66" lane="1si_0" slope="0.00"/>
    </timestep>
    <timestep time="27.50">
        <vehicle id="v0" x="398.11" y="496.43" angle="85.83" type="DEFAULT_VEHTYPE" speed="5.20" pos="154.56" lane="1si_1" slope="0.00"/>
        <vehicle id="v1" x="411.04" y="492.30" angle="88.33" type="thin" speed="11.70" pos="168.18" lane="1si_0" slope="0.00"/>
    </timestep>
    <timestep time="28.00">
        <vehicle id="v0" x="400.89" y="496.70" angle="85.00" type="DEFAULT_VEHTYPE" speed="6.50" pos="157.48" lane="1si_1" slope="0.00"/>
        <vehicle id="v1" x="416.89" y="492.57" angle="87.50" type="thin" speed="13.00" pos="174.36" lane="1si_0" slope="0.00"/>
    </timestep>
    <timestep time="28.50">
        <vehicle id="v0" x="404.28" y="496.98" angle="85.83" type="DEFAULT_VEHTYPE" speed="7.80" pos="161.06" lane="1si_2" slope="0.00"/>
        <vehicle id="v1" x="423.27" y="492.85" angle="86.67" type="thin" speed="13.89" pos="181.08" lane="1si_0" slope="0.00"/>
    </timestep>
    <timestep time="29.00">
        <vehicle id="v0" x="408.29" y="497.25" angle="86.67" type="DEFAULT_VEHTYPE" speed="9.10" pos="165.28" lane="1si_2" slope="0.00"/>
        <vehicle id="v1" x="429.86" y="493.12" angle="85.83" type="thin" speed="13.89" pos="188.02" lane="1si_0" slope="0.00"/>
    </timestep>
    <timestep time="29.50">
        <vehicle id="v0" x="412.91" y="497.53" angle="87.50" type="DEFAULT_VEHTYPE" speed="10.40" pos="170.16" lane="1si_2" slope="0.00"/>
        <vehicle id="v1" x="436.45" y="493.40" angle="85.00" type="thin" speed="13.89" pos="194.97" lane="1si_0" slope="0.00"/>
    </timestep>
    <timestep time="30.00">
        <vehicle id="v0" x="418.15" y="497.80" angle="88.33" type="DEFAULT_VEHTYPE" speed="11.70" pos="175.68" lane="1si_2" slope="0.00"/>
        <vehicle id="v1" x="443.04" y="493.68" angle="85.83" type="thin" speed="13.89" pos="201.91" lane="1si_1" slope="0.00"/>
    </timestep>
    <timestep time="30.50">
        <vehicle id="v0" x="424.01" y="498.08" angle="89.17" type="DEFAULT_VEHTYPE" speed="13.00" pos="181.86" lane="1si_2" slope="0.00"/>
        <vehicle id="v1" x="449.62" y="493.95" angle="86.67" type="thin" speed="13.89" pos="208.86" lane="1si_1" slope="0.00"/>
    </timestep>
    <timestep time="31.00">
        <vehicle id="v0" x="430.39" y="498.08" angle="90.83" type="DEFAULT_VEHTYPE" speed="13.89" pos="188.58" lane="1si_2" slope="0.00"/>
        <vehicle id="v1" x="456.21" y="494.23" angle="87.50" type="thin" speed="13.89" pos="215.80" lane="1si_1" slope="0.00"/>
    </timestep>
    <timestep time="31.50">
        <vehicle id="v0" x="436.77" y="497.80" angle="91.67" type="DEFAULT_VEHTYPE" speed="13.01" pos="195.31" lane="1si_2" slope="0.00"/>
        <vehicle id="v1" x="462.80" y="494.50" angle="88.33" type="thin" speed="13.89" pos="222.75" lane="1si_1" slope="0.00"/>
    </timestep>
    <timestep time="32.00">
        <vehicle id="v0" x="443.15" y="497.53" angle="92.50" type="DEFAULT_VEHTYPE" speed="13.89" pos="202.03" lane="1si_2" slope="0.00"/>
        <vehicle id="v1" x="469.39" y="494.78" angle="89.17" type="thin" speed="13.89" pos="229.69" lane="1si_1" slope="0.00"/>
    </timestep>
    <timestep time="32.50">
        <vehicle id="v0" x="449.74" y="497.25" angle="93.33" type="DEFAULT_VEHTYPE" speed="13.89" pos="208.98" lane="1si_2" slope="0.00"/>
        <vehicle id="v1" x="475.98" y="495.05" angle="90.00" type="thin" speed="13.89" pos="236.64" lane="1si_1" slope="0.00"/>
    </timestep>
    <timestep time="33.00">
        <vehicle id="v0" x="456.32" y="496.98" angle="94.17" type="DEFAULT_VEHTYPE" speed="13.89" pos="215.92" lane="1si_2" slope="0.00"/>
        <vehicle id="v1" x="482.56" y="495.05" angle="90.00" type="thin" speed="13.89" pos="243.58" lane="1si_1" slope="0.00"/>
    </timestep>
    <timestep time="33.50">
        <vehicle id="v0" x="462.91" y="496.70" angle="95.00" type="DEFAULT_VEHTYPE" speed="13.89" pos="222.87" lane="1si_2" slope="0.00"/>
    </timestep>
    <timestep time="34.00">
        <vehicle id="v0" x="469.50" y="496.43" angle="94.17" type="DEFAULT_VEHTYPE" speed="13.89" pos="229.81" lane="1si_1" slope="0.00"/>
    </timestep>
    <timestep time="34.50">
        <vehicle id="v0" x="476.09" y="496.15" angle="93.33" type="DEFAULT_VEHTYPE" speed="13.89" pos="236.76" lane="1si_1" slope="0.00"/>
    </timestep>
    <timestep time="35.00">
        <vehicle id="v0" x="482.68" y="495.88" angle="92.50" type="DEFAULT_VEHTYPE" speed="13.89" pos="243.70" lane="1si_1" slope="0.00"/>
    </timestep>
    <timestep time="35.50"/>
</fcd-export>
