<?xml version="1.0" encoding="UTF-8"?>

<!-- generated on Wed Apr  6 12:59:57 2016 by SUMO Version dev-SVN-r20343
<?xml version="1.0" encoding="UTF-8"?>

<configuration xmlns:xsi="http://www.w3.org/2001/XMLSchema-instance" xsi:noNamespaceSchemaLocation="http://sumo.dlr.de/xsd/sumoConfiguration.xsd">

    <input>
        <net-file value="three_split.net.xml"/>
        <route-files value="input_routes.rou.xml"/>
        <additional-files value="input_additional.add.xml,input_additional2.add.xml"/>
    </input>

    <output>
        <netstate-dump value="rawdump.xml"/>
    </output>

    <time>
        <step-length value="0.5"/>
    </time>

    <processing>
        <euler value="true"/>
    </processing>

    <report>
        <xml-validation value="never"/>
        <duration-log.disable value="true"/>
        <no-step-log value="true"/>
    </report>

</configuration>
-->

<instantE1>
    <instantOut id="beg_end" time="23.84" state="enter" vehID="leader" speed="20.00" length="5.00" type="leader"/>
    <instantOut id="beg_end" time="24.00" state="stay" vehID="leader" speed="20.00" length="5.00" type="leader"/>
    <instantOut id="beg_end" time="24.09" state="leave" vehID="leader" speed="20.00" length="5.00" type="leader" occupancy="0.25"/>
    <instantOut id="beg_end" time="25.14" state="enter" vehID="follower" speed="20.18" length="5.00" type="follower" gap="1.05"/>
    <instantOut id="beg_end" time="25.39" state="leave" vehID="follower" speed="20.18" length="5.00" type="follower" occupancy="0.25"/>
</instantE1>
