<?xml version="1.0" encoding="UTF-8"?>

<!-- generated on Tue Apr  5 13:44:23 2016 by SUMO Version dev-SVN-r20343
<?xml version="1.0" encoding="UTF-8"?>

<configuration xmlns:xsi="http://www.w3.org/2001/XMLSchema-instance" xsi:noNamespaceSchemaLocation="http://sumo.dlr.de/xsd/sumoConfiguration.xsd">

    <input>
        <net-file value="net.net.xml"/>
        <additional-files value="input_routes.rou.xml,input_additional.add.xml"/>
    </input>

    <time>
        <begin value="0"/>
        <end value="150"/>
    </time>

    <report>
        <xml-validation value="never"/>
        <duration-log.disable value="true"/>
        <no-step-log value="true"/>
    </report>

</configuration>
-->

<meandata xmlns:xsi="http://www.w3.org/2001/XMLSchema-instance" xsi:noNamespaceSchemaLocation="http://sumo.dlr.de/xsd/meandata_file.xsd">
    <interval begin="0.00" end="15.00" id="dump_15">
        <edge id="beg" sampledSeconds="14.00" traveltime="27.46" density="1.87" occupancy="0.94" waitingTime="0.00" speed="18.16" departed="1" arrived="0" entered="0" left="0" laneChangedFrom="0" laneChangedTo="0"/>
    </interval>
    <interval begin="0.00" end="15.00" id="dump_15_internal">
        <edge id="beg" sampledSeconds="14.00" traveltime="27.46" density="1.87" occupancy="0.94" waitingTime="0.00" speed="18.16" departed="1" arrived="0" entered="0" left="0" laneChangedFrom="0" laneChangedTo="0"/>
    </interval>
    <interval begin="15.00" end="30.00" id="dump_15">
        <edge id="beg" sampledSeconds="10.02" traveltime="19.86" density="1.34" occupancy="0.67" waitingTime="0.00" speed="25.10" departed="0" arrived="0" entered="0" left="1" laneChangedFrom="0" laneChangedTo="0"/>
        <edge id="middle" sampledSeconds="4.90" traveltime="71.26" density="0.33" occupancy="0.16" waitingTime="0.00" speed="13.90" departed="0" arrived="0" entered="1" left="0" laneChangedFrom="0" laneChangedTo="0"/>
    </interval>
    <interval begin="15.00" end="30.00" id="dump_15_internal">
        <edge id=":beg_0" sampledSeconds="0.77" traveltime="0.44" density="8.25" occupancy="4.13" waitingTime="0.00" speed="14.09" departed="0" arrived="0" entered="1" left="1" laneChangedFrom="0" laneChangedTo="0"/>
        <edge id="beg" sampledSeconds="10.02" traveltime="19.86" density="1.34" occupancy="0.67" waitingTime="0.00" speed="25.10" departed="0" arrived="0" entered="0" left="1" laneChangedFrom="0" laneChangedTo="0"/>
        <edge id="middle" sampledSeconds="4.90" traveltime="71.26" density="0.33" occupancy="0.16" waitingTime="0.00" speed="13.90" departed="0" arrived="0" entered="1" left="0" laneChangedFrom="0" laneChangedTo="0"/>
    </interval>
    <interval begin="30.00" end="45.00" id="dump_15">
        <edge id="middle" sampledSeconds="15.00" traveltime="71.26" density="1.01" occupancy="0.50" waitingTime="0.00" speed="13.90" departed="0" arrived="0" entered="0" left="0" laneChangedFrom="0" laneChangedTo="0"/>
    </interval>
    <interval begin="30.00" end="45.00" id="dump_15_internal">
        <edge id="middle" sampledSeconds="15.00" traveltime="71.26" density="1.01" occupancy="0.50" waitingTime="0.00" speed="13.90" departed="0" arrived="0" entered="0" left="0" laneChangedFrom="0" laneChangedTo="0"/>
    </interval>
    <interval begin="45.00" end="60.00" id="dump_15">
        <edge id="middle" sampledSeconds="15.00" traveltime="71.26" density="1.01" occupancy="0.50" waitingTime="0.00" speed="13.90" departed="0" arrived="0" entered="0" left="0" laneChangedFrom="0" laneChangedTo="0"/>
    </interval>
    <interval begin="45.00" end="60.00" id="dump_15_internal">
        <edge id="middle" sampledSeconds="15.00" traveltime="71.26" density="1.01" occupancy="0.50" waitingTime="0.00" speed="13.90" departed="0" arrived="0" entered="0" left="0" laneChangedFrom="0" laneChangedTo="0"/>
    </interval>
    <interval begin="60.00" end="75.00" id="dump_15">
        <edge id="middle" sampledSeconds="15.00" traveltime="71.26" density="1.01" occupancy="0.50" waitingTime="0.00" speed="13.90" departed="0" arrived="0" entered="0" left="0" laneChangedFrom="0" laneChangedTo="0"/>
    </interval>
    <interval begin="60.00" end="75.00" id="dump_15_internal">
        <edge id="middle" sampledSeconds="15.00" traveltime="71.26" density="1.01" occupancy="0.50" waitingTime="0.00" speed="13.90" departed="0" arrived="0" entered="0" left="0" laneChangedFrom="0" laneChangedTo="0"/>
    </interval>
    <interval begin="75.00" end="90.00" id="dump_15">
        <edge id="middle" sampledSeconds="15.00" traveltime="71.26" density="1.01" occupancy="0.50" waitingTime="0.00" speed="13.90" departed="0" arrived="0" entered="0" left="0" laneChangedFrom="0" laneChangedTo="0"/>
    </interval>
    <interval begin="75.00" end="90.00" id="dump_15_internal">
        <edge id="middle" sampledSeconds="15.00" traveltime="71.26" density="1.01" occupancy="0.50" waitingTime="0.00" speed="13.90" departed="0" arrived="0" entered="0" left="0" laneChangedFrom="0" laneChangedTo="0"/>
    </interval>
    <interval begin="90.00" end="105.00" id="dump_15">
        <edge id="end" sampledSeconds="6.61" traveltime="28.42" density="0.88" occupancy="0.44" waitingTime="0.00" speed="17.54" departed="0" arrived="0" entered="1" left="0" laneChangedFrom="0" laneChangedTo="0"/>
        <edge id="middle" sampledSeconds="8.23" traveltime="90.39" density="0.55" occupancy="0.28" waitingTime="0.00" speed="10.96" departed="0" arrived="0" entered="0" left="1" laneChangedFrom="0" laneChangedTo="0"/>
    </interval>
    <interval begin="90.00" end="105.00" id="dump_15_internal">
        <edge id=":end_1" sampledSeconds="1.55" traveltime="0.75" density="16.72" occupancy="8.36" waitingTime="0.00" speed="8.32" departed="0" arrived="0" entered="1" left="1" laneChangedFrom="0" laneChangedTo="0"/>
        <edge id="end" sampledSeconds="6.61" traveltime="28.42" density="0.88" occupancy="0.44" waitingTime="0.00" speed="17.54" departed="0" arrived="0" entered="1" left="0" laneChangedFrom="0" laneChangedTo="0"/>
        <edge id="middle" sampledSeconds="8.23" traveltime="90.39" density="0.55" occupancy="0.28" waitingTime="0.00" speed="10.96" departed="0" arrived="0" entered="0" left="1" laneChangedFrom="0" laneChangedTo="0"/>
    </interval>
    <interval begin="105.00" end="120.00" id="dump_15">
        <edge id="end" sampledSeconds="14.31" traveltime="17.95" density="1.91" occupancy="0.96" waitingTime="0.00" speed="27.78" departed="0" arrived="0" entered="0" left="1" laneChangedFrom="0" laneChangedTo="0"/>
        <edge id="rend" sampledSeconds="0.87" traveltime="17.99" density="0.12" occupancy="0.06" waitingTime="0.00" speed="27.80" departed="0" arrived="0" entered="1" left="0" laneChangedFrom="0" laneChangedTo="0"/>
    </interval>
    <interval begin="105.00" end="120.00" id="dump_15_internal">
        <edge id=":absEnd_0" sampledSeconds="0.18" traveltime="0.00" density="122.30" occupancy="61.15" waitingTime="0.00" speed="27.80" departed="0" arrived="0" entered="1" left="1" laneChangedFrom="0" laneChangedTo="0"/>
        <edge id="end" sampledSeconds="14.31" traveltime="17.95" density="1.91" occupancy="0.96" waitingTime="0.00" speed="27.78" departed="0" arrived="0" entered="0" left="1" laneChangedFrom="0" laneChangedTo="0"/>
        <edge id="rend" sampledSeconds="0.87" traveltime="17.99" density="0.12" occupancy="0.06" waitingTime="0.00" speed="27.80" departed="0" arrived="0" entered="1" left="0" laneChangedFrom="0" laneChangedTo="0"/>
    </interval>
    <interval begin="120.00" end="135.00" id="dump_15">
        <edge id="rend" sampledSeconds="15.00" traveltime="17.99" density="2.00" occupancy="1.00" waitingTime="0.00" speed="27.80" departed="0" arrived="0" entered="0" left="0" laneChangedFrom="0" laneChangedTo="0"/>
    </interval>
    <interval begin="120.00" end="135.00" id="dump_15_internal">
        <edge id="rend" sampledSeconds="15.00" traveltime="17.99" density="2.00" occupancy="1.00" waitingTime="0.00" speed="27.80" departed="0" arrived="0" entered="0" left="0" laneChangedFrom="0" laneChangedTo="0"/>
    </interval>
    <interval begin="135.00" end="150.00" id="dump_15">
        <edge id="rend" sampledSeconds="2.25" traveltime="17.99" density="0.30" occupancy="0.15" waitingTime="0.00" speed="27.80" departed="0" arrived="1" entered="0" left="0" laneChangedFrom="0" laneChangedTo="0"/>
    </interval>
    <interval begin="135.00" end="150.00" id="dump_15_internal">
        <edge id="rend" sampledSeconds="2.25" traveltime="17.99" density="0.30" occupancy="0.15" waitingTime="0.00" speed="27.80" departed="0" arrived="1" entered="0" left="0" laneChangedFrom="0" laneChangedTo="0"/>
    </interval>
</meandata>
