<?xml version="1.0" encoding="UTF-8"?>

<!-- generated on Tue Apr  5 13:44:30 2016 by SUMO Version dev-SVN-r20343
<?xml version="1.0" encoding="UTF-8"?>

<configuration xmlns:xsi="http://www.w3.org/2001/XMLSchema-instance" xsi:noNamespaceSchemaLocation="http://sumo.dlr.de/xsd/sumoConfiguration.xsd">

    <input>
        <net-file value="net.net.xml"/>
        <additional-files value="input_routes.rou.xml,input_additional.add.xml,input_additional2.add.xml"/>
    </input>

    <time>
        <begin value="0"/>
        <end value="1000"/>
    </time>

    <processing>
        <time-to-teleport value="-1"/>
    </processing>

    <report>
        <xml-validation value="never"/>
        <duration-log.disable value="true"/>
        <no-step-log value="true"/>
    </report>

</configuration>
-->

<meandata xmlns:xsi="http://www.w3.org/2001/XMLSchema-instance" xsi:noNamespaceSchemaLocation="http://sumo.dlr.de/xsd/meandata_file.xsd">
    <interval begin="600.00" end="660.00" id="dump_60">
        <edge id="2/1to1/1" sampledSeconds="60.00" CO_abs="382.293667" CO2_abs="36101.566667" HC_abs="20.965200" PMx_abs="1.275689" NOx_abs="50.370600" fuel_abs="14.393131" electricity_abs="0"
            CO_normed="57.344050" CO2_normed="5415.235000" HC_normed="3.144780" PMx_normed="0.191353" NOx_normed="7.555590" fuel_normed="2.158970" electricity_normed="0"
            traveltime="100000.00" CO_perVeh="637156.111111" CO2_perVeh="60169277.777778" HC_perVeh="34942.000000" PMx_perVeh="2126.148611" NOx_perVeh="83951.000000" fuel_perVeh="23988.551336" electricity_perVeh="0"/>
        <edge id="3/1to2/1" sampledSeconds="3120.00" CO_abs="19879.270667" CO2_abs="1877281.466667" HC_abs="1090.190400" PMx_abs="66.335837" NOx_abs="2619.271200" fuel_abs="748.442802" electricity_abs="0"
            CO_normed="2981.890600" CO2_normed="281592.220000" HC_normed="163.528560" PMx_normed="9.950375" NOx_normed="392.890680" fuel_normed="112.266420" electricity_normed="0"
            traveltime="100000.00" CO_perVeh="637156.111111" CO2_perVeh="60169277.777779" HC_perVeh="34942.000000" PMx_perVeh="2126.148611" NOx_perVeh="83951.000000" fuel_perVeh="23988.551336" electricity_perVeh="0"/>
        <edge id="4/1to3/1" sampledSeconds="1500.00" CO_abs="9538.221844" CO2_abs="900734.653254" HC_abs="523.081717" PMx_abs="31.828483" NOx_abs="1256.747386" fuel_abs="359.108839" electricity_abs="0"
            CO_normed="1430.733277" CO2_normed="135110.197988" HC_normed="78.462258" PMx_normed="4.774273" NOx_normed="188.512108" fuel_normed="53.866326" electricity_normed="0"
            traveltime="100000.00" CO_perVeh="635881.456279" CO2_perVeh="60048976.883589" HC_perVeh="34872.114476" PMx_perVeh="2121.898899" NOx_perVeh="83783.159045" fuel_perVeh="23940.589248" electricity_perVeh="0"/>
    </interval>
</meandata>
