<?xml version="1.0" encoding="UTF-8"?>

<!-- generated on Wed Jun  1 10:58:16 2016 by SUMO Version dev-SVN-r20832
<?xml version="1.0" encoding="UTF-8"?>

<configuration xmlns:xsi="http://www.w3.org/2001/XMLSchema-instance" xsi:noNamespaceSchemaLocation="http://sumo.dlr.de/xsd/sumoConfiguration.xsd">

    <input>
        <net-file value="net.net.xml"/>
        <additional-files value="input_routes.rou.xml,input_additional.add.xml"/>
    </input>

    <time>
        <begin value="0"/>
        <end value="150"/>
    </time>

    <report>
        <xml-validation value="never"/>
        <duration-log.disable value="true"/>
        <no-step-log value="true"/>
    </report>

</configuration>
-->

<meandata xmlns:xsi="http://www.w3.org/2001/XMLSchema-instance" xsi:noNamespaceSchemaLocation="http://sumo.dlr.de/xsd/meandata_file.xsd">
    <interval begin="0.00" end="60.00" id="dump_60">
        <edge id="1si" sampledSeconds="91.91" traveltime="75.85" density="6.13" occupancy="0.61" waitingTime="28.00" speed="3.30" departed="2" arrived="0" entered="0" left="2" laneChangedFrom="4" laneChangedTo="4"/>
        <edge id="4o" sampledSeconds="23.54" traveltime="107.73" density="0.78" occupancy="0.24" waitingTime="0.00" speed="4.64" departed="0" arrived="0" entered="2" left="0" laneChangedFrom="0" laneChangedTo="0"/>
    </interval>
    <interval begin="60.00" end="120.00" id="dump_60">
        <edge id="4o" sampledSeconds="120.00" traveltime="100.00" density="4.00" occupancy="1.20" waitingTime="0.00" speed="5.00" departed="0" arrived="0" entered="0" left="0" laneChangedFrom="0" laneChangedTo="0"/>
    </interval>
    <interval begin="120.00" end="150.00" id="dump_60">
        <edge id="4o" sampledSeconds="58.94" traveltime="99.73" density="3.93" occupancy="1.18" waitingTime="0.00" speed="5.01" departed="0" arrived="1" entered="0" left="0" laneChangedFrom="0" laneChangedTo="0"/>
    </interval>
</meandata>
