<?xml version="1.0" encoding="UTF-8"?>

<!-- generated on Tue Apr  5 13:44:43 2016 by SUMO Version dev-SVN-r20343
<?xml version="1.0" encoding="UTF-8"?>

<configuration xmlns:xsi="http://www.w3.org/2001/XMLSchema-instance" xsi:noNamespaceSchemaLocation="http://sumo.dlr.de/xsd/sumoConfiguration.xsd">

    <input>
        <net-file value="net.net.xml"/>
        <route-files value="input_routes.rou.xml"/>
        <additional-files value="input_additional.add.xml"/>
    </input>

    <time>
        <begin value="0"/>
        <end value="1000"/>
    </time>

    <report>
        <xml-validation value="never"/>
        <duration-log.disable value="true"/>
        <no-step-log value="true"/>
    </report>

</configuration>
-->

<meandata xmlns:xsi="http://www.w3.org/2001/XMLSchema-instance" xsi:noNamespaceSchemaLocation="http://sumo.dlr.de/xsd/meandata_file.xsd">
    <interval begin="0.00" end="60.00" id="dump_60">
        <edge id="1fi">
            <lane id="1fi_0" sampledSeconds="0.00" departed="0" arrived="0" entered="0" left="0" laneChangedFrom="0" laneChangedTo="0"/>
        </edge>
        <edge id="1o">
            <lane id="1o_0" sampledSeconds="0.00" departed="0" arrived="0" entered="0" left="0" laneChangedFrom="0" laneChangedTo="0"/>
        </edge>
        <edge id="1si">
            <lane id="1si_0" sampledSeconds="0.00" departed="0" arrived="0" entered="0" left="0" laneChangedFrom="0" laneChangedTo="0"/>
            <lane id="1si_1" sampledSeconds="0.00" departed="0" arrived="0" entered="0" left="0" laneChangedFrom="0" laneChangedTo="0"/>
            <lane id="1si_2" sampledSeconds="0.00" departed="0" arrived="0" entered="0" left="0" laneChangedFrom="0" laneChangedTo="0"/>
        </edge>
        <edge id="2fi">
            <lane id="2fi_0" sampledSeconds="0.00" departed="0" arrived="0" entered="0" left="0" laneChangedFrom="0" laneChangedTo="0"/>
        </edge>
        <edge id="2o">
            <lane id="2o_0" sampledSeconds="0.00" departed="0" arrived="0" entered="0" left="0" laneChangedFrom="0" laneChangedTo="0"/>
        </edge>
        <edge id="2si">
            <lane id="2si_0" sampledSeconds="0.00" departed="0" arrived="0" entered="0" left="0" laneChangedFrom="0" laneChangedTo="0"/>
            <lane id="2si_1" sampledSeconds="0.00" departed="0" arrived="0" entered="0" left="0" laneChangedFrom="0" laneChangedTo="0"/>
            <lane id="2si_2" sampledSeconds="0.00" departed="0" arrived="0" entered="0" left="0" laneChangedFrom="0" laneChangedTo="0"/>
        </edge>
        <edge id="3fi">
            <lane id="3fi_0" sampledSeconds="0.00" departed="0" arrived="0" entered="0" left="0" laneChangedFrom="0" laneChangedTo="0"/>
        </edge>
        <edge id="3o">
            <lane id="3o_0" sampledSeconds="0.00" departed="0" arrived="0" entered="0" left="0" laneChangedFrom="0" laneChangedTo="0"/>
        </edge>
        <edge id="3si">
            <lane id="3si_0" sampledSeconds="0.00" departed="0" arrived="0" entered="0" left="0" laneChangedFrom="0" laneChangedTo="0"/>
            <lane id="3si_1" sampledSeconds="0.00" departed="0" arrived="0" entered="0" left="0" laneChangedFrom="0" laneChangedTo="0"/>
            <lane id="3si_2" sampledSeconds="0.00" departed="0" arrived="0" entered="0" left="0" laneChangedFrom="0" laneChangedTo="0"/>
        </edge>
        <edge id="4fi">
            <lane id="4fi_0" sampledSeconds="0.00" departed="0" arrived="0" entered="0" left="0" laneChangedFrom="0" laneChangedTo="0"/>
        </edge>
        <edge id="4o">
            <lane id="4o_0" sampledSeconds="0.00" departed="0" arrived="0" entered="0" left="0" laneChangedFrom="0" laneChangedTo="0"/>
        </edge>
        <edge id="4si">
            <lane id="4si_0" sampledSeconds="0.00" departed="0" arrived="0" entered="0" left="0" laneChangedFrom="0" laneChangedTo="0"/>
            <lane id="4si_1" sampledSeconds="0.00" departed="0" arrived="0" entered="0" left="0" laneChangedFrom="0" laneChangedTo="0"/>
            <lane id="4si_2" sampledSeconds="0.00" departed="0" arrived="0" entered="0" left="0" laneChangedFrom="0" laneChangedTo="0"/>
        </edge>
    </interval>
    <interval begin="60.00" end="120.00" id="dump_60">
        <edge id="1fi">
            <lane id="1fi_0" sampledSeconds="28.00" traveltime="28.51" density="1.88" occupancy="0.94" waitingTime="0.00" speed="8.71" departed="2" arrived="0" entered="0" left="0" laneChangedFrom="0" laneChangedTo="0"/>
        </edge>
        <edge id="1o">
            <lane id="1o_0" sampledSeconds="0.00" departed="0" arrived="0" entered="0" left="0" laneChangedFrom="0" laneChangedTo="0"/>
        </edge>
        <edge id="1si">
            <lane id="1si_0" sampledSeconds="0.00" departed="0" arrived="0" entered="0" left="0" laneChangedFrom="0" laneChangedTo="0"/>
            <lane id="1si_1" sampledSeconds="0.00" departed="0" arrived="0" entered="0" left="0" laneChangedFrom="0" laneChangedTo="0"/>
            <lane id="1si_2" sampledSeconds="0.00" departed="0" arrived="0" entered="0" left="0" laneChangedFrom="0" laneChangedTo="0"/>
        </edge>
        <edge id="2fi">
            <lane id="2fi_0" sampledSeconds="28.00" traveltime="28.32" density="1.88" occupancy="0.94" waitingTime="0.00" speed="8.77" departed="2" arrived="0" entered="0" left="0" laneChangedFrom="0" laneChangedTo="0"/>
        </edge>
        <edge id="2o">
            <lane id="2o_0" sampledSeconds="0.00" departed="0" arrived="0" entered="0" left="0" laneChangedFrom="0" laneChangedTo="0"/>
        </edge>
        <edge id="2si">
            <lane id="2si_0" sampledSeconds="0.00" departed="0" arrived="0" entered="0" left="0" laneChangedFrom="0" laneChangedTo="0"/>
            <lane id="2si_1" sampledSeconds="0.00" departed="0" arrived="0" entered="0" left="0" laneChangedFrom="0" laneChangedTo="0"/>
            <lane id="2si_2" sampledSeconds="0.00" departed="0" arrived="0" entered="0" left="0" laneChangedFrom="0" laneChangedTo="0"/>
        </edge>
        <edge id="3fi">
            <lane id="3fi_0" sampledSeconds="50.00" traveltime="28.20" density="3.35" occupancy="1.68" waitingTime="0.00" speed="8.81" departed="4" arrived="0" entered="0" left="0" laneChangedFrom="0" laneChangedTo="0"/>
        </edge>
        <edge id="3o">
            <lane id="3o_0" sampledSeconds="0.00" departed="0" arrived="0" entered="0" left="0" laneChangedFrom="0" laneChangedTo="0"/>
        </edge>
        <edge id="3si">
            <lane id="3si_0" sampledSeconds="0.00" departed="0" arrived="0" entered="0" left="0" laneChangedFrom="0" laneChangedTo="0"/>
            <lane id="3si_1" sampledSeconds="0.00" departed="0" arrived="0" entered="0" left="0" laneChangedFrom="0" laneChangedTo="0"/>
            <lane id="3si_2" sampledSeconds="0.00" departed="0" arrived="0" entered="0" left="0" laneChangedFrom="0" laneChangedTo="0"/>
        </edge>
        <edge id="4fi">
            <lane id="4fi_0" sampledSeconds="0.00" departed="0" arrived="0" entered="0" left="0" laneChangedFrom="0" laneChangedTo="0"/>
        </edge>
        <edge id="4o">
            <lane id="4o_0" sampledSeconds="0.00" departed="0" arrived="0" entered="0" left="0" laneChangedFrom="0" laneChangedTo="0"/>
        </edge>
        <edge id="4si">
            <lane id="4si_0" sampledSeconds="0.00" departed="0" arrived="0" entered="0" left="0" laneChangedFrom="0" laneChangedTo="0"/>
            <lane id="4si_1" sampledSeconds="0.00" departed="0" arrived="0" entered="0" left="0" laneChangedFrom="0" laneChangedTo="0"/>
            <lane id="4si_2" sampledSeconds="0.00" departed="0" arrived="0" entered="0" left="0" laneChangedFrom="0" laneChangedTo="0"/>
        </edge>
    </interval>
    <interval begin="120.00" end="180.00" id="dump_60">
        <edge id="1fi">
            <lane id="1fi_0" sampledSeconds="160.56" traveltime="26.09" density="10.77" occupancy="5.38" waitingTime="0.00" speed="9.53" departed="6" arrived="0" entered="0" left="6" laneChangedFrom="0" laneChangedTo="0"/>
        </edge>
        <edge id="1o">
            <lane id="1o_0" sampledSeconds="66.52" traveltime="46.95" density="2.27" occupancy="1.13" waitingTime="0.00" speed="10.41" departed="0" arrived="0" entered="3" left="0" laneChangedFrom="0" laneChangedTo="0"/>
        </edge>
        <edge id="1si">
            <lane id="1si_0" sampledSeconds="0.00" departed="0" arrived="0" entered="0" left="0" laneChangedFrom="0" laneChangedTo="0"/>
            <lane id="1si_1" sampledSeconds="0.00" departed="0" arrived="0" entered="0" left="0" laneChangedFrom="0" laneChangedTo="0"/>
            <lane id="1si_2" sampledSeconds="90.66" traveltime="18.85" density="6.37" occupancy="3.19" waitingTime="0.00" speed="12.58" departed="0" arrived="0" entered="6" left="4" laneChangedFrom="0" laneChangedTo="0"/>
        </edge>
        <edge id="2fi">
            <lane id="2fi_0" sampledSeconds="158.99" traveltime="25.95" density="10.66" occupancy="5.33" waitingTime="0.00" speed="9.58" departed="6" arrived="0" entered="0" left="6" laneChangedFrom="0" laneChangedTo="0"/>
        </edge>
        <edge id="2o">
            <lane id="2o_0" sampledSeconds="0.00" departed="0" arrived="0" entered="0" left="0" laneChangedFrom="0" laneChangedTo="0"/>
        </edge>
        <edge id="2si">
            <lane id="2si_0" sampledSeconds="0.00" departed="0" arrived="0" entered="0" left="0" laneChangedFrom="0" laneChangedTo="0"/>
            <lane id="2si_1" sampledSeconds="93.79" traveltime="19.31" density="6.59" occupancy="3.30" waitingTime="3.00" speed="12.28" departed="0" arrived="0" entered="6" left="3" laneChangedFrom="0" laneChangedTo="0"/>
            <lane id="2si_2" sampledSeconds="0.00" departed="0" arrived="0" entered="0" left="0" laneChangedFrom="0" laneChangedTo="0"/>
        </edge>
        <edge id="3fi">
            <lane id="3fi_0" sampledSeconds="316.64" traveltime="26.01" density="21.24" occupancy="10.62" waitingTime="0.00" speed="9.56" departed="12" arrived="0" entered="0" left="11" laneChangedFrom="0" laneChangedTo="0"/>
        </edge>
        <edge id="3o">
            <lane id="3o_0" sampledSeconds="0.00" departed="0" arrived="0" entered="0" left="0" laneChangedFrom="0" laneChangedTo="0"/>
        </edge>
        <edge id="3si">
            <lane id="3si_0" sampledSeconds="166.06" traveltime="37.93" density="11.67" occupancy="5.84" waitingTime="73.00" speed="6.25" departed="0" arrived="0" entered="6" left="0" laneChangedFrom="0" laneChangedTo="0"/>
            <lane id="3si_1" sampledSeconds="146.41" traveltime="36.80" density="10.29" occupancy="5.14" waitingTime="59.00" speed="6.44" departed="0" arrived="0" entered="5" left="0" laneChangedFrom="0" laneChangedTo="0"/>
            <lane id="3si_2" sampledSeconds="0.00" departed="0" arrived="0" entered="0" left="0" laneChangedFrom="0" laneChangedTo="0"/>
        </edge>
        <edge id="4fi">
            <lane id="4fi_0" sampledSeconds="0.00" departed="0" arrived="0" entered="0" left="0" laneChangedFrom="0" laneChangedTo="0"/>
        </edge>
        <edge id="4o">
            <lane id="4o_0" sampledSeconds="60.19" traveltime="46.90" density="2.05" occupancy="1.03" waitingTime="0.00" speed="10.42" departed="0" arrived="0" entered="4" left="0" laneChangedFrom="0" laneChangedTo="0"/>
        </edge>
        <edge id="4si">
            <lane id="4si_0" sampledSeconds="0.00" departed="0" arrived="0" entered="0" left="0" laneChangedFrom="0" laneChangedTo="0"/>
            <lane id="4si_1" sampledSeconds="0.00" departed="0" arrived="0" entered="0" left="0" laneChangedFrom="0" laneChangedTo="0"/>
            <lane id="4si_2" sampledSeconds="0.00" departed="0" arrived="0" entered="0" left="0" laneChangedFrom="0" laneChangedTo="0"/>
        </edge>
    </interval>
    <interval begin="180.00" end="240.00" id="dump_60">
        <edge id="1fi">
            <lane id="1fi_0" sampledSeconds="232.42" traveltime="25.36" density="15.59" occupancy="7.79" waitingTime="0.00" speed="9.80" departed="6" arrived="0" entered="3" left="9" laneChangedFrom="0" laneChangedTo="0"/>
        </edge>
        <edge id="1o">
            <lane id="1o_0" sampledSeconds="108.51" traveltime="47.40" density="3.70" occupancy="1.85" waitingTime="0.00" speed="10.31" departed="0" arrived="0" entered="6" left="3" laneChangedFrom="0" laneChangedTo="0"/>
        </edge>
        <edge id="1si">
            <lane id="1si_0" sampledSeconds="0.00" departed="0" arrived="0" entered="0" left="0" laneChangedFrom="0" laneChangedTo="0"/>
            <lane id="1si_1" sampledSeconds="28.73" traveltime="18.17" density="2.02" occupancy="1.01" waitingTime="0.00" speed="13.05" departed="0" arrived="0" entered="2" left="1" laneChangedFrom="0" laneChangedTo="0"/>
            <lane id="1si_2" sampledSeconds="272.96" traveltime="54.56" density="19.18" occupancy="9.59" waitingTime="128.00" speed="4.35" departed="0" arrived="0" entered="6" left="2" laneChangedFrom="0" laneChangedTo="0"/>
        </edge>
        <edge id="2fi">
            <lane id="2fi_0" sampledSeconds="172.84" traveltime="25.31" density="11.59" occupancy="5.80" waitingTime="0.00" speed="9.82" departed="5" arrived="0" entered="5" left="6" laneChangedFrom="0" laneChangedTo="0"/>
        </edge>
        <edge id="2o">
            <lane id="2o_0" sampledSeconds="314.78" traveltime="46.96" density="10.74" occupancy="5.37" waitingTime="0.00" speed="10.41" departed="0" arrived="0" entered="7" left="5" laneChangedFrom="0" laneChangedTo="0"/>
        </edge>
        <edge id="2si">
            <lane id="2si_0" sampledSeconds="0.00" departed="0" arrived="0" entered="0" left="0" laneChangedFrom="0" laneChangedTo="0"/>
            <lane id="2si_1" sampledSeconds="301.46" traveltime="52.04" density="21.19" occupancy="10.59" waitingTime="154.00" speed="4.56" departed="0" arrived="0" entered="6" left="7" laneChangedFrom="0" laneChangedTo="0"/>
            <lane id="2si_2" sampledSeconds="0.00" departed="0" arrived="0" entered="0" left="0" laneChangedFrom="0" laneChangedTo="0"/>
        </edge>
        <edge id="3fi">
            <lane id="3fi_0" sampledSeconds="317.78" traveltime="25.85" density="21.31" occupancy="10.66" waitingTime="0.00" speed="9.61" departed="12" arrived="0" entered="0" left="13" laneChangedFrom="0" laneChangedTo="0"/>
        </edge>
        <edge id="3o">
            <lane id="3o_0" sampledSeconds="0.00" departed="0" arrived="0" entered="0" left="0" laneChangedFrom="0" laneChangedTo="0"/>
        </edge>
        <edge id="3si">
            <lane id="3si_0" sampledSeconds="182.28" traveltime="30.46" density="12.81" occupancy="6.41" waitingTime="44.00" speed="7.78" departed="0" arrived="0" entered="6" left="7" laneChangedFrom="0" laneChangedTo="0"/>
            <lane id="3si_1" sampledSeconds="170.32" traveltime="27.97" density="11.97" occupancy="5.98" waitingTime="35.00" speed="8.48" departed="0" arrived="0" entered="6" left="7" laneChangedFrom="0" laneChangedTo="0"/>
            <lane id="3si_2" sampledSeconds="0.00" departed="0" arrived="0" entered="0" left="0" laneChangedFrom="0" laneChangedTo="0"/>
        </edge>
        <edge id="4fi">
            <lane id="4fi_0" sampledSeconds="102.88" traveltime="23.82" density="6.90" occupancy="3.45" waitingTime="0.00" speed="10.43" departed="0" arrived="0" entered="8" left="2" laneChangedFrom="0" laneChangedTo="0"/>
        </edge>
        <edge id="4o">
            <lane id="4o_0" sampledSeconds="435.06" traveltime="46.85" density="14.84" occupancy="7.42" waitingTime="0.00" speed="10.43" departed="0" arrived="0" entered="7" left="8" laneChangedFrom="0" laneChangedTo="0"/>
        </edge>
        <edge id="4si">
            <lane id="4si_0" sampledSeconds="0.00" departed="0" arrived="0" entered="0" left="0" laneChangedFrom="0" laneChangedTo="0"/>
            <lane id="4si_1" sampledSeconds="0.00" departed="0" arrived="0" entered="0" left="0" laneChangedFrom="0" laneChangedTo="0"/>
            <lane id="4si_2" sampledSeconds="25.75" traveltime="19.51" density="1.81" occupancy="0.90" waitingTime="0.00" speed="12.15" departed="0" arrived="0" entered="2" left="0" laneChangedFrom="0" laneChangedTo="0"/>
        </edge>
    </interval>
    <interval begin="240.00" end="300.00" id="dump_60">
        <edge id="1fi">
            <lane id="1fi_0" sampledSeconds="266.07" traveltime="24.98" density="17.85" occupancy="8.92" waitingTime="0.00" speed="9.95" departed="6" arrived="0" entered="8" left="6" laneChangedFrom="0" laneChangedTo="0"/>
        </edge>
        <edge id="1o">
            <lane id="1o_0" sampledSeconds="391.33" traveltime="47.04" density="13.35" occupancy="6.67" waitingTime="0.00" speed="10.39" departed="0" arrived="0" entered="3" left="8" laneChangedFrom="0" laneChangedTo="0"/>
        </edge>
        <edge id="1si">
            <lane id="1si_0" sampledSeconds="0.00" departed="0" arrived="0" entered="0" left="0" laneChangedFrom="0" laneChangedTo="0"/>
            <lane id="1si_1" sampledSeconds="68.60" traveltime="50.16" density="4.82" occupancy="2.41" waitingTime="40.00" speed="4.73" departed="0" arrived="0" entered="1" left="1" laneChangedFrom="0" laneChangedTo="0"/>
            <lane id="1si_2" sampledSeconds="321.11" traveltime="59.11" density="22.57" occupancy="11.28" waitingTime="134.00" speed="4.01" departed="0" arrived="0" entered="6" left="5" laneChangedFrom="0" laneChangedTo="0"/>
        </edge>
        <edge id="2fi">
            <lane id="2fi_0" sampledSeconds="328.48" traveltime="24.84" density="22.03" occupancy="11.02" waitingTime="0.00" speed="10.00" departed="7" arrived="0" entered="4" left="13" laneChangedFrom="0" laneChangedTo="0"/>
        </edge>
        <edge id="2o">
            <lane id="2o_0" sampledSeconds="277.31" traveltime="47.23" density="9.46" occupancy="4.73" waitingTime="0.00" speed="10.35" departed="0" arrived="0" entered="12" left="4" laneChangedFrom="0" laneChangedTo="0"/>
        </edge>
        <edge id="2si">
            <lane id="2si_0" sampledSeconds="254.55" traveltime="46.95" density="17.89" occupancy="8.94" waitingTime="118.00" speed="5.05" departed="0" arrived="0" entered="7" left="0" laneChangedFrom="0" laneChangedTo="0"/>
            <lane id="2si_1" sampledSeconds="173.80" traveltime="31.53" density="12.21" occupancy="6.11" waitingTime="60.00" speed="7.52" departed="0" arrived="0" entered="6" left="2" laneChangedFrom="0" laneChangedTo="0"/>
            <lane id="2si_2" sampledSeconds="0.00" departed="0" arrived="0" entered="0" left="0" laneChangedFrom="0" laneChangedTo="0"/>
        </edge>
        <edge id="3fi">
            <lane id="3fi_0" sampledSeconds="316.45" traveltime="25.75" density="21.22" occupancy="10.61" waitingTime="0.00" speed="9.65" departed="12" arrived="0" entered="0" left="12" laneChangedFrom="0" laneChangedTo="0"/>
        </edge>
        <edge id="3o">
            <lane id="3o_0" sampledSeconds="102.86" traveltime="46.90" density="3.51" occupancy="1.75" waitingTime="0.00" speed="10.42" departed="0" arrived="0" entered="6" left="0" laneChangedFrom="0" laneChangedTo="0"/>
        </edge>
        <edge id="3si">
            <lane id="3si_0" sampledSeconds="302.15" traveltime="49.94" density="21.23" occupancy="10.62" waitingTime="149.00" speed="4.75" departed="0" arrived="0" entered="6" left="9" laneChangedFrom="0" laneChangedTo="0"/>
            <lane id="3si_1" sampledSeconds="290.44" traveltime="47.32" density="20.41" occupancy="10.21" waitingTime="138.00" speed="5.01" departed="0" arrived="0" entered="6" left="9" laneChangedFrom="0" laneChangedTo="0"/>
            <lane id="3si_2" sampledSeconds="0.00" departed="0" arrived="0" entered="0" left="0" laneChangedFrom="0" laneChangedTo="0"/>
        </edge>
        <edge id="4fi">
            <lane id="4fi_0" sampledSeconds="173.47" traveltime="23.84" density="11.63" occupancy="5.82" waitingTime="0.00" speed="10.42" departed="0" arrived="0" entered="5" left="9" laneChangedFrom="0" laneChangedTo="0"/>
        </edge>
        <edge id="4o">
            <lane id="4o_0" sampledSeconds="455.15" traveltime="46.97" density="15.52" occupancy="7.76" waitingTime="0.00" speed="10.40" departed="0" arrived="0" entered="15" left="6" laneChangedFrom="0" laneChangedTo="0"/>
        </edge>
        <edge id="4si">
            <lane id="4si_0" sampledSeconds="0.00" departed="0" arrived="0" entered="0" left="0" laneChangedFrom="0" laneChangedTo="0"/>
            <lane id="4si_1" sampledSeconds="129.54" traveltime="18.14" density="9.10" occupancy="4.55" waitingTime="0.00" speed="13.07" departed="0" arrived="0" entered="7" left="6" laneChangedFrom="0" laneChangedTo="0"/>
            <lane id="4si_2" sampledSeconds="194.31" traveltime="94.09" density="13.66" occupancy="6.83" waitingTime="110.00" speed="2.52" departed="0" arrived="0" entered="2" left="3" laneChangedFrom="0" laneChangedTo="0"/>
        </edge>
    </interval>
    <interval begin="300.00" end="360.00" id="dump_60">
        <edge id="1fi">
            <lane id="1fi_0" sampledSeconds="271.15" traveltime="25.11" density="18.19" occupancy="9.09" waitingTime="0.00" speed="9.89" departed="6" arrived="0" entered="1" left="15" laneChangedFrom="0" laneChangedTo="0"/>
        </edge>
        <edge id="1o">
            <lane id="1o_0" sampledSeconds="275.17" traveltime="46.91" density="9.39" occupancy="4.69" waitingTime="0.00" speed="10.42" departed="0" arrived="0" entered="9" left="1" laneChangedFrom="0" laneChangedTo="0"/>
        </edge>
        <edge id="1si">
            <lane id="1si_0" sampledSeconds="0.00" departed="0" arrived="0" entered="0" left="0" laneChangedFrom="0" laneChangedTo="0"/>
            <lane id="1si_1" sampledSeconds="190.40" traveltime="20.64" density="13.38" occupancy="6.69" waitingTime="15.00" speed="11.49" departed="0" arrived="0" entered="9" left="10" laneChangedFrom="0" laneChangedTo="0"/>
            <lane id="1si_2" sampledSeconds="462.88" traveltime="88.60" density="32.53" occupancy="16.27" waitingTime="192.00" speed="2.68" departed="0" arrived="0" entered="6" left="6" laneChangedFrom="0" laneChangedTo="0"/>
        </edge>
        <edge id="2fi">
            <lane id="2fi_0" sampledSeconds="404.34" traveltime="24.54" density="27.12" occupancy="13.56" waitingTime="0.00" speed="10.13" departed="6" arrived="2" entered="13" left="12" laneChangedFrom="0" laneChangedTo="0"/>
        </edge>
        <edge id="2o">
            <lane id="2o_0" sampledSeconds="746.48" traveltime="47.23" density="25.46" occupancy="12.73" waitingTime="0.00" speed="10.35" departed="0" arrived="0" entered="13" left="13" laneChangedFrom="0" laneChangedTo="0"/>
        </edge>
        <edge id="2si">
            <lane id="2si_0" sampledSeconds="230.44" traveltime="55.14" density="16.20" occupancy="8.10" waitingTime="126.00" speed="4.30" departed="0" arrived="0" entered="8" left="7" laneChangedFrom="0" laneChangedTo="0"/>
            <lane id="2si_1" sampledSeconds="223.40" traveltime="41.23" density="15.70" occupancy="7.85" waitingTime="87.00" speed="5.75" departed="0" arrived="0" entered="4" left="9" laneChangedFrom="0" laneChangedTo="0"/>
            <lane id="2si_2" sampledSeconds="0.00" departed="0" arrived="0" entered="0" left="0" laneChangedFrom="0" laneChangedTo="0"/>
        </edge>
        <edge id="3fi">
            <lane id="3fi_0" sampledSeconds="423.96" traveltime="25.33" density="28.43" occupancy="14.22" waitingTime="0.00" speed="9.81" departed="12" arrived="5" entered="7" left="9" laneChangedFrom="0" laneChangedTo="0"/>
        </edge>
        <edge id="3o">
            <lane id="3o_0" sampledSeconds="230.81" traveltime="47.42" density="7.87" occupancy="3.94" waitingTime="0.00" speed="10.30" departed="0" arrived="0" entered="1" left="7" laneChangedFrom="0" laneChangedTo="0"/>
        </edge>
        <edge id="3si">
            <lane id="3si_0" sampledSeconds="283.86" traveltime="59.33" density="19.95" occupancy="9.97" waitingTime="174.00" speed="4.00" departed="0" arrived="0" entered="5" left="0" laneChangedFrom="0" laneChangedTo="0"/>
            <lane id="3si_1" sampledSeconds="259.29" traveltime="58.13" density="18.22" occupancy="9.11" waitingTime="155.00" speed="4.08" departed="0" arrived="0" entered="5" left="0" laneChangedFrom="0" laneChangedTo="0"/>
            <lane id="3si_2" sampledSeconds="0.00" departed="0" arrived="0" entered="0" left="0" laneChangedFrom="0" laneChangedTo="0"/>
        </edge>
        <edge id="4fi">
            <lane id="4fi_0" sampledSeconds="365.88" traveltime="23.83" density="24.54" occupancy="12.27" waitingTime="0.00" speed="10.43" departed="0" arrived="0" entered="14" left="14" laneChangedFrom="0" laneChangedTo="0"/>
        </edge>
        <edge id="4o">
            <lane id="4o_0" sampledSeconds="642.59" traveltime="47.02" density="21.92" occupancy="10.96" waitingTime="0.00" speed="10.39" departed="0" arrived="0" entered="14" left="13" laneChangedFrom="0" laneChangedTo="0"/>
        </edge>
        <edge id="4si">
            <lane id="4si_0" sampledSeconds="0.00" departed="0" arrived="0" entered="0" left="0" laneChangedFrom="0" laneChangedTo="0"/>
            <lane id="4si_1" sampledSeconds="49.42" traveltime="18.07" density="3.47" occupancy="1.74" waitingTime="0.00" speed="13.13" departed="0" arrived="0" entered="7" left="1" laneChangedFrom="0" laneChangedTo="0"/>
            <lane id="4si_2" sampledSeconds="224.68" traveltime="39.49" density="15.79" occupancy="7.90" waitingTime="85.00" speed="6.01" departed="0" arrived="0" entered="7" left="1" laneChangedFrom="0" laneChangedTo="0"/>
        </edge>
    </interval>
    <interval begin="360.00" end="420.00" id="dump_60">
        <edge id="1fi">
            <lane id="1fi_0" sampledSeconds="378.18" traveltime="24.67" density="25.36" occupancy="12.68" waitingTime="0.00" speed="10.07" departed="6" arrived="0" entered="9" left="15" laneChangedFrom="0" laneChangedTo="0"/>
        </edge>
        <edge id="1o">
            <lane id="1o_0" sampledSeconds="184.97" traveltime="46.95" density="6.31" occupancy="3.15" waitingTime="0.00" speed="10.41" departed="0" arrived="0" entered="5" left="9" laneChangedFrom="0" laneChangedTo="0"/>
        </edge>
        <edge id="1si">
            <lane id="1si_0" sampledSeconds="0.00" departed="0" arrived="0" entered="0" left="0" laneChangedFrom="0" laneChangedTo="0"/>
            <lane id="1si_1" sampledSeconds="137.14" traveltime="18.19" density="9.64" occupancy="4.82" waitingTime="0.00" speed="13.03" departed="0" arrived="0" entered="9" left="5" laneChangedFrom="0" laneChangedTo="0"/>
            <lane id="1si_2" sampledSeconds="555.88" traveltime="167.69" density="39.07" occupancy="19.53" waitingTime="393.00" speed="1.41" departed="0" arrived="0" entered="6" left="2" laneChangedFrom="0" laneChangedTo="0"/>
        </edge>
        <edge id="2fi">
            <lane id="2fi_0" sampledSeconds="517.82" traveltime="24.31" density="34.73" occupancy="17.36" waitingTime="0.00" speed="10.22" departed="5" arrived="9" entered="15" left="13" laneChangedFrom="0" laneChangedTo="0"/>
        </edge>
        <edge id="2o">
            <lane id="2o_0" sampledSeconds="676.58" traveltime="46.94" density="23.08" occupancy="11.54" waitingTime="0.00" speed="10.41" departed="0" arrived="0" entered="17" left="15" laneChangedFrom="0" laneChangedTo="0"/>
        </edge>
        <edge id="2si">
            <lane id="2si_0" sampledSeconds="488.44" traveltime="103.66" density="34.33" occupancy="17.16" waitingTime="323.00" speed="2.29" departed="0" arrived="0" entered="1" left="7" laneChangedFrom="0" laneChangedTo="0"/>
            <lane id="2si_1" sampledSeconds="248.57" traveltime="45.14" density="17.47" occupancy="8.73" waitingTime="109.00" speed="5.25" departed="0" arrived="0" entered="8" left="6" laneChangedFrom="0" laneChangedTo="0"/>
            <lane id="2si_2" sampledSeconds="163.65" traveltime="48.45" density="11.50" occupancy="5.75" waitingTime="64.00" speed="4.89" departed="0" arrived="0" entered="4" left="2" laneChangedFrom="0" laneChangedTo="0"/>
        </edge>
        <edge id="3fi">
            <lane id="3fi_0" sampledSeconds="383.68" traveltime="25.46" density="25.73" occupancy="12.87" waitingTime="0.00" speed="9.76" departed="11" arrived="2" entered="3" left="14" laneChangedFrom="0" laneChangedTo="0"/>
        </edge>
        <edge id="3o">
            <lane id="3o_0" sampledSeconds="384.08" traveltime="47.22" density="13.10" occupancy="6.55" waitingTime="0.00" speed="10.35" departed="0" arrived="0" entered="9" left="3" laneChangedFrom="0" laneChangedTo="0"/>
        </edge>
        <edge id="3si">
            <lane id="3si_0" sampledSeconds="206.31" traveltime="31.67" density="14.50" occupancy="7.25" waitingTime="52.00" speed="7.49" departed="0" arrived="0" entered="7" left="9" laneChangedFrom="0" laneChangedTo="0"/>
            <lane id="3si_1" sampledSeconds="221.91" traveltime="32.96" density="15.60" occupancy="7.80" waitingTime="61.00" speed="7.19" departed="0" arrived="0" entered="7" left="8" laneChangedFrom="0" laneChangedTo="0"/>
            <lane id="3si_2" sampledSeconds="0.00" departed="0" arrived="0" entered="0" left="0" laneChangedFrom="0" laneChangedTo="0"/>
        </edge>
        <edge id="4fi">
            <lane id="4fi_0" sampledSeconds="323.16" traveltime="23.85" density="21.67" occupancy="10.84" waitingTime="0.00" speed="10.42" departed="0" arrived="0" entered="17" left="11" laneChangedFrom="0" laneChangedTo="0"/>
        </edge>
        <edge id="4o">
            <lane id="4o_0" sampledSeconds="692.26" traveltime="46.97" density="23.61" occupancy="11.81" waitingTime="0.00" speed="10.40" departed="0" arrived="0" entered="14" left="17" laneChangedFrom="0" laneChangedTo="0"/>
        </edge>
        <edge id="4si">
            <lane id="4si_0" sampledSeconds="163.68" traveltime="27.95" density="11.50" occupancy="5.75" waitingTime="28.00" speed="8.48" departed="0" arrived="0" entered="7" left="0" laneChangedFrom="0" laneChangedTo="0"/>