<?xml version="1.0" encoding="UTF-8"?>

<!-- generated on Tue Apr  5 13:44:43 2016 by SUMO Version dev-SVN-r20343
<?xml version="1.0" encoding="UTF-8"?>

<configuration xmlns:xsi="http://www.w3.org/2001/XMLSchema-instance" xsi:noNamespaceSchemaLocation="http://sumo.dlr.de/xsd/sumoConfiguration.xsd">

    <input>
        <net-file value="net.net.xml"/>
        <route-files value="input_routes.rou.xml"/>
        <additional-files value="input_additional.add.xml"/>
    </input>

    <time>
        <begin value="0"/>
        <end value="1000"/>
    </time>

    <report>
        <xml-validation value="never"/>
        <duration-log.disable value="true"/>
        <no-step-log value="true"/>
    </report>

</configuration>
-->

<meandata xmlns:xsi="http://www.w3.org/2001/XMLSchema-instance" xsi:noNamespaceSchemaLocation="http://sumo.dlr.de/xsd/meandata_file.xsd">
    <interval begin="0.00" end="300.00" id="dump_300">
        <edge id="1fi">
            <lane id="1fi_0" sampledSeconds="687.05" traveltime="25.49" density="9.22" occupancy="4.61" waitingTime="0.00" speed="9.75" departed="20" arrived="0" entered="11" left="21" laneChangedFrom="0" laneChangedTo="0"/>
        </edge>
        <edge id="1o">
            <lane id="1o_0" sampledSeconds="566.36" traveltime="47.10" density="3.86" occupancy="1.93" waitingTime="0.00" speed="10.38" departed="0" arrived="0" entered="12" left="11" laneChangedFrom="0" laneChangedTo="0"/>
        </edge>
        <edge id="1si">
            <lane id="1si_0" sampledSeconds="0.00" departed="0" arrived="0" entered="0" left="0" laneChangedFrom="0" laneChangedTo="0"/>
            <lane id="1si_1" sampledSeconds="97.32" traveltime="33.01" density="1.37" occupancy="0.68" waitingTime="40.00" speed="7.18" departed="0" arrived="0" entered="3" left="2" laneChangedFrom="0" laneChangedTo="0"/>
            <lane id="1si_2" sampledSeconds="684.73" traveltime="44.92" density="9.62" occupancy="4.81" waitingTime="262.00" speed="5.28" departed="0" arrived="0" entered="18" left="11" laneChangedFrom="0" laneChangedTo="0"/>
        </edge>
        <edge id="2fi">
            <lane id="2fi_0" sampledSeconds="688.30" traveltime="25.33" density="9.23" occupancy="4.62" waitingTime="0.00" speed="9.81" departed="20" arrived="0" entered="9" left="25" laneChangedFrom="0" laneChangedTo="0"/>
        </edge>
        <edge id="2o">
            <lane id="2o_0" sampledSeconds="592.08" traveltime="47.08" density="4.04" occupancy="2.02" waitingTime="0.00" speed="10.38" departed="0" arrived="0" entered="19" left="9" laneChangedFrom="0" laneChangedTo="0"/>
        </edge>
        <edge id="2si">
            <lane id="2si_0" sampledSeconds="254.55" traveltime="46.95" density="3.58" occupancy="1.79" waitingTime="118.00" speed="5.05" departed="0" arrived="0" entered="7" left="0" laneChangedFrom="0" laneChangedTo="0"/>
            <lane id="2si_1" sampledSeconds="569.05" traveltime="35.21" density="8.00" occupancy="4.00" waitingTime="217.00" speed="6.74" departed="0" arrived="0" entered="18" left="12" laneChangedFrom="0" laneChangedTo="0"/>
            <lane id="2si_2" sampledSeconds="0.00" departed="0" arrived="0" entered="0" left="0" laneChangedFrom="0" laneChangedTo="0"/>
        </edge>
        <edge id="3fi">
            <lane id="3fi_0" sampledSeconds="1000.86" traveltime="25.97" density="13.43" occupancy="6.71" waitingTime="0.00" speed="9.57" departed="40" arrived="0" entered="0" left="36" laneChangedFrom="0" laneChangedTo="0"/>
        </edge>
        <edge id="3o">
            <lane id="3o_0" sampledSeconds="102.86" traveltime="46.90" density="0.70" occupancy="0.35" waitingTime="0.00" speed="10.42" departed="0" arrived="0" entered="6" left="0" laneChangedFrom="0" laneChangedTo="0"/>
        </edge>
        <edge id="3si">
            <lane id="3si_0" sampledSeconds="650.48" traveltime="39.64" density="9.14" occupancy="4.57" waitingTime="266.00" speed="5.98" departed="0" arrived="0" entered="18" left="16" laneChangedFrom="0" laneChangedTo="0"/>
            <lane id="3si_1" sampledSeconds="607.17" traveltime="37.47" density="8.53" occupancy="4.27" waitingTime="232.00" speed="6.33" departed="0" arrived="0" entered="17" left="16" laneChangedFrom="0" laneChangedTo="0"/>
            <lane id="3si_2" sampledSeconds="0.00" departed="0" arrived="0" entered="0" left="0" laneChangedFrom="0" laneChangedTo="0"/>
        </edge>
        <edge id="4fi">
            <lane id="4fi_0" sampledSeconds="276.35" traveltime="23.83" density="3.71" occupancy="1.85" waitingTime="0.00" speed="10.43" departed="0" arrived="0" entered="13" left="11" laneChangedFrom="0" laneChangedTo="0"/>
        </edge>
        <edge id="4o">
            <lane id="4o_0" sampledSeconds="950.40" traveltime="46.91" density="6.48" occupancy="3.24" waitingTime="0.00" speed="10.42" departed="0" arrived="0" entered="26" left="14" laneChangedFrom="0" laneChangedTo="0"/>
        </edge>
        <edge id="4si">
            <lane id="4si_0" sampledSeconds="0.00" departed="0" arrived="0" entered="0" left="0" laneChangedFrom="0" laneChangedTo="0"/>
            <lane id="4si_1" sampledSeconds="129.54" traveltime="18.14" density="1.82" occupancy="0.91" waitingTime="0.00" speed="13.07" departed="0" arrived="0" entered="7" left="6" laneChangedFrom="0" laneChangedTo="0"/>
            <lane id="4si_2" sampledSeconds="220.06" traveltime="65.01" density="3.09" occupancy="1.55" waitingTime="110.00" speed="3.65" departed="0" arrived="0" entered="4" left="3" laneChangedFrom="0" laneChangedTo="0"/>
        </edge>
    </interval>
    <interval begin="300.00" end="600.00" id="dump_300">
        <edge id="1fi">
            <lane id="1fi_0" sampledSeconds="1721.97" traveltime="24.74" density="23.10" occupancy="11.55" waitingTime="0.00" speed="10.04" departed="29" arrived="0" entered="39" left="71" laneChangedFrom="0" laneChangedTo="0"/>
        </edge>
        <edge id="1o">
            <lane id="1o_0" sampledSeconds="2118.13" traveltime="46.96" density="14.45" occupancy="7.22" waitingTime="0.00" speed="10.41" departed="0" arrived="0" entered="51" left="39" laneChangedFrom="0" laneChangedTo="0"/>
        </edge>
        <edge id="1si">
            <lane id="1si_0" sampledSeconds="439.58" traveltime="69.06" density="6.18" occupancy="3.09" waitingTime="258.00" speed="3.43" departed="0" arrived="0" entered="7" left="6" laneChangedFrom="0" laneChangedTo="0"/>
            <lane id="1si_1" sampledSeconds="702.82" traveltime="20.65" density="9.88" occupancy="4.94" waitingTime="70.00" speed="11.48" departed="0" arrived="0" entered="35" left="32" laneChangedFrom="0" laneChangedTo="0"/>
            <lane id="1si_2" sampledSeconds="3440.59" traveltime="200.45" density="48.36" occupancy="24.18" waitingTime="2141.00" speed="1.18" departed="0" arrived="0" entered="29" left="20" laneChangedFrom="0" laneChangedTo="0"/>
        </edge>
        <edge id="2fi">
            <lane id="2fi_0" sampledSeconds="2495.75" traveltime="24.48" density="33.48" occupancy="16.74" waitingTime="0.00" speed="10.15" departed="29" arrived="29" entered="73" left="70" laneChangedFrom="0" laneChangedTo="0"/>
        </edge>
        <edge id="2o">
            <lane id="2o_0" sampledSeconds="3604.69" traveltime="47.12" density="24.59" occupancy="12.29" waitingTime="0.00" speed="10.37" departed="0" arrived="0" entered="76" left="73" laneChangedFrom="0" laneChangedTo="0"/>
        </edge>
        <edge id="2si">
            <lane id="2si_0" sampledSeconds="1757.02" traveltime="71.51" density="24.70" occupancy="12.35" waitingTime="1038.00" speed="3.32" departed="0" arrived="0" entered="26" left="32" laneChangedFrom="0" laneChangedTo="0"/>
            <lane id="2si_1" sampledSeconds="1228.84" traveltime="44.08" density="17.27" occupancy="8.64" waitingTime="552.00" speed="5.38" departed="0" arrived="0" entered="29" left="32" laneChangedFrom="0" laneChangedTo="0"/>
            <lane id="2si_2" sampledSeconds="677.41" traveltime="54.46" density="9.52" occupancy="4.76" waitingTime="256.00" speed="4.35" departed="0" arrived="0" entered="15" left="10" laneChangedFrom="0" laneChangedTo="0"/>
        </edge>
        <edge id="3fi">
            <lane id="3fi_0" sampledSeconds="2350.77" traveltime="25.24" density="31.53" occupancy="15.77" waitingTime="0.00" speed="9.85" departed="59" arrived="24" entered="35" left="65" laneChangedFrom="0" laneChangedTo="0"/>
        </edge>
        <edge id="3o">
            <lane id="3o_0" sampledSeconds="1803.68" traveltime="47.18" density="12.30" occupancy="6.15" waitingTime="0.00" speed="10.36" departed="0" arrived="0" entered="40" left="35" laneChangedFrom="0" laneChangedTo="0"/>
        </edge>
        <edge id="3si">
            <lane id="3si_0" sampledSeconds="1279.23" traveltime="45.60" density="17.98" occupancy="8.99" waitingTime="607.00" speed="5.20" departed="0" arrived="0" entered="30" left="26" laneChangedFrom="0" laneChangedTo="0"/>
            <lane id="3si_1" sampledSeconds="1399.68" traveltime="50.54" density="19.67" occupancy="9.84" waitingTime="707.00" speed="4.69" departed="0" arrived="0" entered="30" left="25" laneChangedFrom="0" laneChangedTo="0"/>
            <lane id="3si_2" sampledSeconds="242.24" traveltime="51.64" density="3.40" occupancy="1.70" waitingTime="100.00" speed="4.59" departed="0" arrived="0" entered="6" left="4" laneChangedFrom="0" laneChangedTo="0"/>
        </edge>
        <edge id="4fi">
            <lane id="4fi_0" sampledSeconds="1804.88" traveltime="23.86" density="24.21" occupancy="12.11" waitingTime="0.00" speed="10.41" departed="0" arrived="0" entered="77" left="70" laneChangedFrom="0" laneChangedTo="0"/>
        </edge>
        <edge id="4o">
            <lane id="4o_0" sampledSeconds="3569.07" traveltime="47.05" density="24.35" occupancy="12.17" waitingTime="0.00" speed="10.39" departed="0" arrived="0" entered="75" left="76" laneChangedFrom="0" laneChangedTo="0"/>
        </edge>
        <edge id="4si">
            <lane id="4si_0" sampledSeconds="1192.27" traveltime="54.79" density="16.76" occupancy="8.38" waitingTime="606.00" speed="4.33" departed="0" arrived="0" entered="25" left="16" laneChangedFrom="0" laneChangedTo="0"/>
            <lane id="4si_1" sampledSeconds="464.51" traveltime="18.14" density="6.53" occupancy="3.26" waitingTime="0.00" speed="13.07" departed="0" arrived="0" entered="25" left="26" laneChangedFrom="0" laneChangedTo="0"/>
            <lane id="4si_2" sampledSeconds="1656.64" traveltime="110.56" density="23.29" occupancy="11.64" waitingTime="924.00" speed="2.15" departed="0" arrived="0" entered="20" left="17" laneChangedFrom="0" laneChangedTo="0"/>
        </edge>
    </interval>
    <interval begin="600.00" end="900.00" id="dump_300">
        <edge id="1fi">
            <lane id="1fi_0" sampledSeconds="2600.18" traveltime="24.45" density="34.88" occupancy="17.44" waitingTime="0.00" speed="10.16" departed="30" arrived="14" entered="75" left="89" laneChangedFrom="0" laneChangedTo="0"/>
        </edge>
        <edge id="1o">
            <lane id="1o_0" sampledSeconds="3617.94" traveltime="47.10" density="24.68" occupancy="12.34" waitingTime="0.00" speed="10.37" departed="0" arrived="0" entered="74" left="75" laneChangedFrom="0" laneChangedTo="0"/>
        </edge>
        <edge id="1si">
            <lane id="1si_0" sampledSeconds="1686.89" traveltime="62.72" density="23.71" occupancy="11.86" waitingTime="931.00" speed="3.78" departed="0" arrived="0" entered="34" left="27" laneChangedFrom="0" laneChangedTo="0"/>
            <lane id="1si_1" sampledSeconds="571.18" traveltime="20.24" density="8.03" occupancy="4.01" waitingTime="54.00" speed="11.71" departed="0" arrived="0" entered="26" left="30" laneChangedFrom="0" laneChangedTo="0"/>
            <lane id="1si_2" sampledSeconds="6757.27" traveltime="100000.00" density="94.98" occupancy="47.49" waitingTime="4123.00" speed="-0.06" departed="0" arrived="0" entered="29" left="19" laneChangedFrom="0" laneChangedTo="0"/>
        </edge>
        <edge id="2fi">
            <lane id="2fi_0" sampledSeconds="2615.40" traveltime="24.44" density="35.08" occupancy="17.54" waitingTime="0.00" speed="10.17" departed="31" arrived="26" entered="73" left="77" laneChangedFrom="0" laneChangedTo="0"/>
        </edge>
        <edge id="2o">
            <lane id="2o_0" sampledSeconds="3424.22" traveltime="47.00" density="23.36" occupancy="11.68" waitingTime="0.00" speed="10.40" departed="0" arrived="0" entered="69" left="73" laneChangedFrom="0" laneChangedTo="0"/>
        </edge>
        <edge id="2si">
            <lane id="2si_0" sampledSeconds="1457.96" traveltime="62.63" density="20.49" occupancy="10.25" waitingTime="819.00" speed="3.79" departed="0" arrived="0" entered="26" left="24" laneChangedFrom="0" laneChangedTo="0"/>
            <lane id="2si_1" sampledSeconds="1288.91" traveltime="42.26" density="18.12" occupancy="9.06" waitingTime="577.00" speed="5.61" departed="0" arrived="0" entered="31" left="31" laneChangedFrom="0" laneChangedTo="0"/>
            <lane id="2si_2" sampledSeconds="1582.21" traveltime="106.97" density="22.24" occupancy="11.12" waitingTime="822.00" speed="2.22" departed="0" arrived="0" entered="20" left="21" laneChangedFrom="0" laneChangedTo="0"/>
        </edge>
        <edge id="3fi">
            <lane id="3fi_0" sampledSeconds="2821.11" traveltime="24.63" density="37.84" occupancy="18.92" waitingTime="0.00" speed="10.09" departed="41" arrived="55" entered="71" left="57" laneChangedFrom="0" laneChangedTo="0"/>
        </edge>
        <edge id="3o">
            <lane id="3o_0" sampledSeconds="3448.28" traveltime="47.09" density="23.52" occupancy="11.76" waitingTime="0.00" speed="10.38" departed="0" arrived="0" entered="74" left="71" laneChangedFrom="0" laneChangedTo="0"/>
        </edge>
        <edge id="3si">
            <lane id="3si_0" sampledSeconds="962.00" traveltime="51.33" density="13.52" occupancy="6.76" waitingTime="509.00" speed="4.62" departed="0" arrived="0" entered="19" left="19" laneChangedFrom="0" laneChangedTo="0"/>
            <lane id="3si_1" sampledSeconds="1222.78" traveltime="64.99" density="17.19" occupancy="8.59" waitingTime="753.00" speed="3.65" departed="0" arrived="0" entered="19" left="20" laneChangedFrom="0" laneChangedTo="0"/>
            <lane id="3si_2" sampledSeconds="993.12" traveltime="59.99" density="13.96" occupancy="6.98" waitingTime="427.00" speed="3.95" departed="0" arrived="0" entered="19" left="16" laneChangedFrom="0" laneChangedTo="0"/>
        </edge>
        <edge id="4fi">
            <lane id="4fi_0" sampledSeconds="1738.83" traveltime="23.81" density="23.32" occupancy="11.66" waitingTime="0.00" speed="10.44" departed="0" arrived="0" entered="67" left="76" laneChangedFrom="0" laneChangedTo="0"/>
        </edge>
        <edge id="4o">
            <lane id="4o_0" sampledSeconds="3160.60" traveltime="46.99" density="21.56" occupancy="10.78" waitingTime="0.00" speed="10.40" departed="0" arrived="0" entered="66" left="67" laneChangedFrom="0" laneChangedTo="0"/>
        </edge>
        <edge id="4si">
            <lane id="4si_0" sampledSeconds="1891.07" traveltime="83.68" density="26.58" occupancy="13.29" waitingTime="1185.00" speed="2.83" departed="0" arrived="0" entered="26" left="26" laneChangedFrom="0" laneChangedTo="0"/>
            <lane id="4si_1" sampledSeconds="492.44" traveltime="18.13" density="6.92" occupancy="3.46" waitingTime="0.00" speed="13.08" departed="0" arrived="0" entered="29" left="24" laneChangedFrom="0" laneChangedTo="0"/>
            <lane id="4si_2" sampledSeconds="1292.54" traveltime="70.74" density="18.17" occupancy="9.08" waitingTime="583.00" speed="3.35" departed="0" arrived="0" entered="21" left="19" laneChangedFrom="0" laneChangedTo="0"/>
        </edge>
    </interval>
    <interval begin="900.00" end="1000.00" id="dump_300">
        <edge id="1fi">
            <lane id="1fi_0" sampledSeconds="1306.84" traveltime="38.33" density="52.59" occupancy="26.29" waitingTime="108.00" speed="6.48" departed="10" arrived="6" entered="28" left="20" laneChangedFrom="0" laneChangedTo="0"/>
        </edge>
        <edge id="1o">
            <lane id="1o_0" sampledSeconds="1190.09" traveltime="47.16" density="24.35" occupancy="12.18" waitingTime="0.00" speed="10.36" departed="0" arrived="0" entered="25" left="28" laneChangedFrom="0" laneChangedTo="0"/>
        </edge>
        <edge id="1si">
            <lane id="1si_0" sampledSeconds="504.61" traveltime="105.30" density="21.28" occupancy="10.64" waitingTime="320.00" speed="2.25" departed="0" arrived="0" entered="1" left="9" laneChangedFrom="0" laneChangedTo="0"/>
            <lane id="1si_1" sampledSeconds="223.90" traveltime="20.08" density="9.44" occupancy="4.72" waitingTime="18.00" speed="11.81" departed="0" arrived="0" entered="11" left="10" laneChangedFrom="0" laneChangedTo="0"/>
            <lane id="1si_2" sampledSeconds="2776.41" traveltime="2904.31" density="117.07" occupancy="58.54" waitingTime="1416.00" speed="0.08" departed="0" arrived="0" entered="7" left="8" laneChangedFrom="0" laneChangedTo="0"/>
        </edge>
        <edge id="2fi">
            <lane id="2fi_0" sampledSeconds="787.77" traveltime="24.42" density="31.70" occupancy="15.85" waitingTime="0.00" speed="10.17" departed="9" arrived="9" entered="24" left="22" laneChangedFrom="0" laneChangedTo="0"/>
        </edge>
        <edge id="2o">
            <lane id="2o_0" sampledSeconds="1217.99" traveltime="46.90" density="24.93" occupancy="12.46" waitingTime="0.00" speed="10.42" departed="0" arrived="0" entered="26" left="24" laneChangedFrom="0" laneChangedTo="0"/>
        </edge>
        <edge id="2si">
            <lane id="2si_0" sampledSeconds="366.50" traveltime="43.75" density="15.45" occupancy="7.73" waitingTime="160.00" speed="5.42" departed="0" arrived="0" entered="11" left="5" laneChangedFrom="0" laneChangedTo="0"/>
            <lane id="2si_1" sampledSeconds="389.40" traveltime="49.31" density="16.42" occupancy="8.21" waitingTime="197.00" speed="4.81" departed="0" arrived="0" entered="7" left="7" laneChangedFrom="0" laneChangedTo="0"/>
            <lane id="2si_2" sampledSeconds="661.11" traveltime="205.22" density="27.88" occupancy="13.94" waitingTime="472.00" speed="1.16" departed="0" arrived="0" entered="4" left="4" laneChangedFrom="0" laneChangedTo="0"/>
        </edge>
        <edge id="3fi">
            <lane id="3fi_0" sampledSeconds="926.25" traveltime="24.72" density="37.27" occupancy="18.64" waitingTime="0.00" speed="10.05" departed="15" arrived="15" entered="21" left="22" laneChangedFrom="0" laneChangedTo="0"/>
        </edge>
        <edge id="3o">
            <lane id="3o_0" sampledSeconds="1039.68" traveltime="47.15" density="21.28" occupancy="10.64" waitingTime="0.00" speed="10.36" departed="0" arrived="0" entered="20" left="22" laneChangedFrom="0" laneChangedTo="0"/>
        </edge>
        <edge id="3si">
            <lane id="3si_0" sampledSeconds="163.42" traveltime="21.79" density="6.89" occupancy="3.45" waitingTime="9.00" speed="10.88" departed="0" arrived="0" entered="8" left="11" laneChangedFrom="0" laneChangedTo="0"/>
            <lane id="3si_1" sampledSeconds="517.49" traveltime="68.36" density="21.82" occupancy="10.91" waitingTime="316.00" speed="3.47" departed="0" arrived="0" entered="8" left="9" laneChangedFrom="0" laneChangedTo="0"/>
            <lane id="3si_2" sampledSeconds="314.07" traveltime="60.90" density="13.24" occupancy="6.62" waitingTime="111.00" speed="3.89" departed="0" arrived="0" entered="6" left="7" laneChangedFrom="0" laneChangedTo="0"/>
        </edge>
        <edge id="4fi">
            <lane id="4fi_0" sampledSeconds="368.27" traveltime="23.75" density="14.82" occupancy="7.41" waitingTime="0.00" speed="10.46" departed="0" arrived="0" entered="17" left="15" laneChangedFrom="0" laneChangedTo="0"/>
        </edge>
        <edge id="4o">
            <lane id="4o_0" sampledSeconds="904.07" traveltime="47.02" density="18.50" occupancy="9.25" waitingTime="0.00" speed="10.39" departed="0" arrived="0" entered="21" left="17" laneChangedFrom="0" laneChangedTo="0"/>
        </edge>
        <edge id="4si">
            <lane id="4si_0" sampledSeconds="411.80" traveltime="68.17" density="17.36" occupancy="8.68" waitingTime="227.00" speed="3.48" departed="0" arrived="0" entered="5" left="13" laneChangedFrom="0" laneChangedTo="0"/>
            <lane id="4si_1" sampledSeconds="133.31" traveltime="18.11" density="5.62" occupancy="2.81" waitingTime="0.00" speed="13.10" departed="0" arrived="0" entered="5" left="8" laneChangedFrom="0" laneChangedTo="0"/>
            <lane id="4si_2" sampledSeconds="418.23" traveltime="97.47" density="17.64" occupancy="8.82" waitingTime="235.00" speed="2.43" departed="0" arrived="0" entered="5" left="7" laneChangedFrom="0" laneChangedTo="0"/>
        </edge>
    </interval>
</meandata>
