<?xml version="1.0" encoding="UTF-8"?>

<!-- generated on Wed Jun  1 15:56:23 2016 by SUMO Version dev-SVN-r20832
<?xml version="1.0" encoding="UTF-8"?>

<configuration xmlns:xsi="http://www.w3.org/2001/XMLSchema-instance" xsi:noNamespaceSchemaLocation="http://sumo.dlr.de/xsd/sumoConfiguration.xsd">

    <input>
        <net-file value="net.net.xml"/>
        <route-files value="input_routes.rou.xml"/>
        <additional-files value="input_additional.add.xml"/>
    </input>

    <output>
        <vehroute-output value="vehroutes.xml"/>
    </output>

    <time>
        <end value="1440"/>
    </time>

    <report>
        <xml-validation value="never"/>
        <duration-log.disable value="true"/>
        <no-step-log value="true"/>
    </report>

</configuration>
-->

<meandata xmlns:xsi="http://www.w3.org/2001/XMLSchema-instance" xsi:noNamespaceSchemaLocation="http://sumo.dlr.de/xsd/meandata_file.xsd">
    <interval begin="0.00" end="360.00" id="expect_300_vehs">
        <edge id="bottleneck" sampledSeconds="712.84" traveltime="2.74" density="20.10" occupancy="10.05" waitingTime="0.00" speed="35.92" departed="0" arrived="0" entered="246" left="244" laneChangedFrom="0" laneChangedTo="0"/>
        <edge id="end" sampledSeconds="709.61" traveltime="2.78" density="19.71" occupancy="9.86" waitingTime="0.00" speed="35.99" departed="0" arrived="242" entered="244" left="0" laneChangedFrom="0" laneChangedTo="0"/>
        <edge id="jam" sampledSeconds="714.33" traveltime="2.75" density="20.14" occupancy="5.04" waitingTime="0.00" speed="35.83" departed="0" arrived="0" entered="248" left="246" laneChangedFrom="0" laneChangedTo="0"/>
        <edge id="middle" sampledSeconds="750.36" traveltime="2.84" density="20.84" occupancy="5.21" waitingTime="0.00" speed="35.21" departed="0" arrived="0" entered="250" left="248" laneChangedFrom="107" laneChangedTo="107"/>
        <edge id="start" sampledSeconds="754.34" traveltime="2.90" density="20.95" occupancy="5.24" waitingTime="0.00" speed="34.50" departed="252" arrived="0" entered="0" left="250" laneChangedFrom="35" laneChangedTo="35"/>
    </interval>
    <interval begin="360.00" end="720.00" id="expect_300_vehs">
        <edge id="bottleneck" sampledSeconds="733.08" traveltime="2.74" density="20.67" occupancy="10.34" waitingTime="0.00" speed="35.92" departed="0" arrived="0" entered="252" left="252" laneChangedFrom="0" laneChangedTo="0"/>
        <edge id="end" sampledSeconds="735.50" traveltime="2.78" density="20.43" occupancy="10.22" waitingTime="0.00" speed="35.99" departed="0" arrived="252" entered="252" left="0" laneChangedFrom="0" laneChangedTo="0"/>
        <edge id="jam" sampledSeconds="728.35" traveltime="2.75" density="20.54" occupancy="5.13" waitingTime="0.00" speed="35.83" departed="0" arrived="0" entered="252" left="252" laneChangedFrom="0" laneChangedTo="0"/>
        <edge id="middle" sampledSeconds="759.06" traveltime="2.84" density="21.09" occupancy="5.27" waitingTime="0.00" speed="35.21" departed="0" arrived="0" entered="252" left="252" laneChangedFrom="108" laneChangedTo="108"/>
        <edge id="start" sampledSeconds="757.35" traveltime="2.90" density="21.04" occupancy="5.26" waitingTime="0.00" speed="34.50" departed="252" arrived="0" entered="0" left="252" laneChangedFrom="36" laneChangedTo="36"/>
    </interval>
    <interval begin="720.00" end="1080.00" id="expect_300_vehs">
        <edge id="bottleneck" sampledSeconds="733.08" traveltime="2.74" density="20.67" occupancy="10.34" waitingTime="0.00" speed="35.92" departed="0" arrived="0" entered="252" left="252" laneChangedFrom="0" laneChangedTo="0"/>
        <edge id="end" sampledSeconds="735.50" traveltime="2.78" density="20.43" occupancy="10.22" waitingTime="0.00" speed="35.99" departed="0" arrived="252" entered="252" left="0" laneChangedFrom="0" laneChangedTo="0"/>
        <edge id="jam" sampledSeconds="728.35" traveltime="2.75" density="20.54" occupancy="5.13" waitingTime="0.00" speed="35.83" departed="0" arrived="0" entered="252" left="252" laneChangedFrom="0" laneChangedTo="0"/>
        <edge id="middle" sampledSeconds="759.06" traveltime="2.84" density="21.09" occupancy="5.27" waitingTime="0.00" speed="35.21" departed="0" arrived="0" entered="252" left="252" laneChangedFrom="108" laneChangedTo="108"/>
        <edge id="start" sampledSeconds="757.35" traveltime="2.90" density="21.04" occupancy="5.26" waitingTime="0.00" speed="34.50" departed="252" arrived="0" entered="0" left="252" laneChangedFrom="36" laneChangedTo="36"/>
    </interval>
    <interval begin="1080.00" end="1440.00" id="expect_300_vehs">
        <edge id="bottleneck" sampledSeconds="733.08" traveltime="2.74" density="20.67" occupancy="10.34" waitingTime="0.00" speed="35.92" departed="0" arrived="0" entered="252" left="252" laneChangedFrom="0" laneChangedTo="0"/>
        <edge id="end" sampledSeconds="735.50" traveltime="2.78" density="20.43" occupancy="10.22" waitingTime="0.00" speed="35.99" departed="0" arrived="252" entered="252" left="0" laneChangedFrom="0" laneChangedTo="0"/>
        <edge id="jam" sampledSeconds="728.35" traveltime="2.75" density="20.54" occupancy="5.13" waitingTime="0.00" speed="35.83" departed="0" arrived="0" entered="252" left="252" laneChangedFrom="0" laneChangedTo="0"/>
        <edge id="middle" sampledSeconds="759.06" traveltime="2.84" density="21.09" occupancy="5.27" waitingTime="0.00" speed="35.21" departed="0" arrived="0" entered="252" left="252" laneChangedFrom="108" laneChangedTo="108"/>
        <edge id="start" sampledSeconds="757.35" traveltime="2.90" density="21.04" occupancy="5.26" waitingTime="0.00" speed="34.50" departed="252" arrived="0" entered="0" left="252" laneChangedFrom="36" laneChangedTo="36"/>
    </interval>
</meandata>
