<?xml version="1.0" encoding="UTF-8"?>

<!-- generated on Tue Apr  5 13:46:11 2016 by SUMO Version dev-SVN-r20343
<?xml version="1.0" encoding="UTF-8"?>

<configuration xmlns:xsi="http://www.w3.org/2001/XMLSchema-instance" xsi:noNamespaceSchemaLocation="http://sumo.dlr.de/xsd/sumoConfiguration.xsd">

    <input>
        <net-file value="net.net.xml"/>
        <route-files value="input_routes.rou.xml"/>
        <additional-files value="input_additional.add.xml"/>
    </input>

    <output>
        <vehroute-output value="vehroutes.xml"/>
    </output>

    <time>
        <end value="1440"/>
    </time>

    <report>
        <xml-validation value="never"/>
        <duration-log.disable value="true"/>
        <no-step-log value="true"/>
    </report>

</configuration>
-->

<meandata xmlns:xsi="http://www.w3.org/2001/XMLSchema-instance" xsi:noNamespaceSchemaLocation="http://sumo.dlr.de/xsd/meandata_file.xsd">
    <interval begin="0.00" end="360.00" id="expect_300_vehs">
        <edge id="bottleneck" sampledSeconds="714.01" traveltime="2.74" density="20.14" occupancy="10.07" waitingTime="0.00" speed="35.98" departed="0" arrived="0" entered="251" left="249" laneChangedFrom="0" laneChangedTo="0"/>
        <edge id="end" sampledSeconds="723.19" traveltime="2.78" density="20.09" occupancy="10.04" waitingTime="0.00" speed="36.03" departed="0" arrived="247" entered="249" left="0" laneChangedFrom="0" laneChangedTo="0"/>
        <edge id="jam" sampledSeconds="726.88" traveltime="2.74" density="20.50" occupancy="5.12" waitingTime="0.00" speed="35.92" departed="0" arrived="0" entered="253" left="251" laneChangedFrom="0" laneChangedTo="0"/>
        <edge id="middle" sampledSeconds="756.38" traveltime="2.80" density="21.01" occupancy="5.25" waitingTime="0.00" speed="35.75" departed="0" arrived="0" entered="255" left="253" laneChangedFrom="102" laneChangedTo="102"/>
        <edge id="start" sampledSeconds="771.48" traveltime="2.91" density="21.43" occupancy="5.36" waitingTime="0.00" speed="34.32" departed="258" arrived="0" entered="0" left="255" laneChangedFrom="51" laneChangedTo="51"/>
    </interval>
    <interval begin="360.00" end="720.00" id="expect_300_vehs">
        <edge id="bottleneck" sampledSeconds="734.69" traveltime="2.74" density="20.72" occupancy="10.36" waitingTime="0.00" speed="35.98" departed="0" arrived="0" entered="257" left="257" laneChangedFrom="0" laneChangedTo="0"/>
        <edge id="end" sampledSeconds="749.25" traveltime="2.78" density="20.81" occupancy="10.41" waitingTime="0.00" speed="36.03" departed="0" arrived="257" entered="257" left="0" laneChangedFrom="0" laneChangedTo="0"/>
        <edge id="jam" sampledSeconds="740.90" traveltime="2.74" density="20.89" occupancy="5.22" waitingTime="0.00" speed="35.92" departed="0" arrived="0" entered="257" left="257" laneChangedFrom="0" laneChangedTo="0"/>
        <edge id="middle" sampledSeconds="765.21" traveltime="2.80" density="21.26" occupancy="5.31" waitingTime="0.00" speed="35.75" departed="0" arrived="0" entered="258" left="257" laneChangedFrom="103" laneChangedTo="103"/>
        <edge id="start" sampledSeconds="775.39" traveltime="2.91" density="21.54" occupancy="5.38" waitingTime="0.00" speed="34.31" departed="257" arrived="0" entered="0" left="258" laneChangedFrom="51" laneChangedTo="51"/>
    </interval>
    <interval begin="720.00" end="1080.00" id="expect_300_vehs">
        <edge id="bottleneck" sampledSeconds="734.06" traveltime="2.74" density="20.70" occupancy="10.35" waitingTime="0.00" speed="35.98" departed="0" arrived="0" entered="257" left="257" laneChangedFrom="0" laneChangedTo="0"/>
        <edge id="end" sampledSeconds="749.77" traveltime="2.78" density="20.83" occupancy="10.41" waitingTime="0.00" speed="36.03" departed="0" arrived="257" entered="257" left="0" laneChangedFrom="0" laneChangedTo="0"/>
        <edge id="jam" sampledSeconds="741.11" traveltime="2.74" density="20.90" occupancy="5.22" waitingTime="0.00" speed="35.92" departed="0" arrived="0" entered="258" left="257" laneChangedFrom="0" laneChangedTo="0"/>
        <edge id="middle" sampledSeconds="765.89" traveltime="2.80" density="21.27" occupancy="5.32" waitingTime="0.00" speed="35.74" departed="0" arrived="0" entered="257" left="258" laneChangedFrom="103" laneChangedTo="103"/>
        <edge id="start" sampledSeconds="774.58" traveltime="2.91" density="21.52" occupancy="5.38" waitingTime="0.00" speed="34.31" departed="257" arrived="0" entered="0" left="257" laneChangedFrom="52" laneChangedTo="52"/>
    </interval>
    <interval begin="1080.00" end="1440.00" id="expect_300_vehs">
        <edge id="bottleneck" sampledSeconds="734.33" traveltime="2.74" density="20.71" occupancy="10.35" waitingTime="0.00" speed="35.98" departed="0" arrived="0" entered="258" left="257" laneChangedFrom="0" laneChangedTo="0"/>
        <edge id="end" sampledSeconds="749.17" traveltime="2.78" density="20.81" occupancy="10.41" waitingTime="0.00" speed="36.03" departed="0" arrived="257" entered="257" left="0" laneChangedFrom="0" laneChangedTo="0"/>
        <edge id="jam" sampledSeconds="741.31" traveltime="2.74" density="20.91" occupancy="5.23" waitingTime="0.00" speed="35.92" departed="0" arrived="0" entered="257" left="258" laneChangedFrom="0" laneChangedTo="0"/>
        <edge id="middle" sampledSeconds="765.15" traveltime="2.80" density="21.25" occupancy="5.31" waitingTime="0.00" speed="35.75" departed="0" arrived="0" entered="257" left="257" laneChangedFrom="103" laneChangedTo="103"/>
        <edge id="start" sampledSeconds="775.46" traveltime="2.91" density="21.54" occupancy="5.39" waitingTime="0.00" speed="34.31" departed="257" arrived="0" entered="0" left="257" laneChangedFrom="51" laneChangedTo="51"/>
    </interval>
</meandata>
