<?xml version="1.0" encoding="UTF-8"?>

<!-- generated on Thu May 12 15:24:57 2016 by SUMO Version dev-SVN-r20713
<?xml version="1.0" encoding="UTF-8"?>

<configuration xmlns:xsi="http://www.w3.org/2001/XMLSchema-instance" xsi:noNamespaceSchemaLocation="http://sumo.dlr.de/xsd/sumoConfiguration.xsd">

    <input>
        <net-file value="net2.net.xml"/>
        <route-files value="input_routes.rou.xml"/>
    </input>

    <output>
        <fcd-output value="fcd.xml"/>
        <tripinfo-output value="tripinfos.xml"/>
    </output>

    <report>
        <xml-validation value="never"/>
        <no-step-log value="true"/>
    </report>

</configuration>
-->

<fcd-export xmlns:xsi="http://www.w3.org/2001/XMLSchema-instance" xsi:noNamespaceSchemaLocation="http://sumo.dlr.de/xsd/fcd_file.xsd">
    <timestep time="0.00">
        <vehicle id="stopped" x="40.00" y="-1.65" angle="90.00" type="DEFAULT_VEHTYPE" speed="0.00" pos="40.00" lane="VODUGES_beg_0" slope="0.00"/>
    </timestep>
    <timestep time="1.00">
        <vehicle id="stopped" x="40.72" y="-1.65" angle="90.00" type="DEFAULT_VEHTYPE" speed="1.44" pos="40.72" lane="VODUGES_beg_0" slope="0.00"/>
    </timestep>
    <timestep time="2.00">
        <vehicle id="stopped" x="43.00" y="-1.65" angle="90.00" type="DEFAULT_VEHTYPE" speed="3.12" pos="43.00" lane="VODUGES_beg_0" slope="0.00"/>
    </timestep>
    <timestep time="3.00">
        <vehicle id="oncoming1" x="48.35" y="5.75" angle="180.00" type="DEFAULT_VEHTYPE" speed="0.00" pos="94.25" lane="NC_0" slope="0.00"/>
        <vehicle id="oncoming2" x="48.35" y="80.00" angle="180.00" type="DEFAULT_VEHTYPE" speed="0.00" pos="20.00" lane="NC_0" slope="0.00"/>
        <vehicle id="oncoming3" x="48.35" y="100.00" angle="180.00" type="DEFAULT_VEHTYPE" speed="0.00" pos="0.00" lane="NC_0" slope="0.00"/>
        <vehicle id="stopped" x="47.39" y="-1.65" angle="90.00" type="DEFAULT_VEHTYPE" speed="5.66" pos="2.14" lane=":C_4_0" slope="0.00"/>
    </timestep>
    <timestep time="4.00">
        <vehicle id="oncoming1" x="48.35" y="4.75" angle="180.00" type="DEFAULT_VEHTYPE" speed="2.00" pos="0.00" lane=":C_0_0" slope="0.00"/>
        <vehicle id="oncoming2" x="48.35" y="79.08" angle="180.00" type="DEFAULT_VEHTYPE" speed="1.83" pos="20.92" lane="NC_0" slope="0.00"/>
        <vehicle id="oncoming3" x="48.35" y="98.73" angle="180.00" type="DEFAULT_VEHTYPE" speed="2.54" pos="1.27" lane="NC_0" slope="0.00"/>
        <vehicle id="overtaking" x="0.00" y="-1.65" angle="90.00" type="DEFAULT_VEHTYPE" speed="0.00" pos="0.00" lane="VODUGES_beg_0" slope="0.00"/>
        <vehicle id="stopped" x="53.86" y="-1.65" angle="90.00" type="DEFAULT_VEHTYPE" speed="7.29" pos="8.61" lane=":C_4_0" slope="0.00"/>
        <vehicle id="stopped2" x="40.00" y="-1.65" angle="90.00" type="DEFAULT_VEHTYPE" speed="0.00" pos="40.00" lane="VODUGES_beg_0" slope="0.00"/>
    </timestep>
    <timestep time="5.00">
        <vehicle id="oncoming1" x="47.30" y="2.26" angle="192.63" type="DEFAULT_VEHTYPE" speed="3.63" pos="2.82" lane=":C_0_0" slope="0.00"/>
        <vehicle id="oncoming2" x="48.35" y="75.95" angle="180.00" type="DEFAULT_VEHTYPE" speed="4.43" pos="24.05" lane="NC_0" slope="0.00"/>
        <vehicle id="oncoming3" x="48.35" y="95.32" angle="180.00" type="DEFAULT_VEHTYPE" speed="4.27" pos="4.68" lane="NC_0" slope="0.00"/>
        <vehicle id="overtaking" x="0.95" y="-1.65" angle="90.00" type="DEFAULT_VEHTYPE" speed="1.89" pos="0.95" lane="VODUGES_beg_0" slope="0.00"/>
        <vehicle id="stopped" x="59.69" y="-1.65" angle="90.00" type="DEFAULT_VEHTYPE" speed="4.37" pos="4.94" lane="VODUGES_end_0" slope="0.00"/>
        <vehicle id="stopped2" x="41.14" y="-1.65" angle="90.00" type="DEFAULT_VEHTYPE" speed="2.28" pos="41.14" lane="VODUGES_beg_0" slope="0.00"/>
    </timestep>
    <timestep time="6.00">
        <vehicle id="oncoming1" x="42.54" y="1.65" angle="262.18" type="DEFAULT_VEHTYPE" speed="6.15" pos="2.71" lane="-VODUGES_beg_0" slope="0.00"/>
        <vehicle id="oncoming2" x="48.35" y="70.80" angle="180.00" type="DEFAULT_VEHTYPE" speed="5.89" pos="29.20" lane="NC_0" slope="0.00"/>
        <vehicle id="oncoming3" x="48.35" y="89.96" angle="180.00" type="DEFAULT_VEHTYPE" speed="6.45" pos="10.04" lane="NC_0" slope="0.00"/>
        <vehicle id="overtaking" x="3.96" y="-1.65" angle="90.00" type="DEFAULT_VEHTYPE" speed="4.15" pos="3.96" lane="VODUGES_beg_0" slope="0.00"/>
        <vehicle id="stopped" x="62.40" y="-1.65" angle="90.00" type="DEFAULT_VEHTYPE" speed="1.04" pos="7.65" lane="VODUGES_end_0" slope="0.00"/>
        <vehicle id="stopped2" x="43.50" y="-1.65" angle="90.00" type="DEFAULT_VEHTYPE" speed="2.45" pos="43.50" lane="VODUGES_beg_0" slope="0.00"/>
    </timestep>
    <timestep time="7.00">
        <vehicle id="oncoming1" x="35.53" y="1.65" angle="270.00" type="DEFAULT_VEHTYPE" speed="7.87" pos="9.72" lane="-VODUGES_beg_0" slope="0.00"/>
        <vehicle id="oncoming2" x="48.35" y="63.81" angle="180.00" type="DEFAULT_VEHTYPE" speed="8.09" pos="36.19" lane="NC_0" slope="0.00"/>
        <vehicle id="oncoming3" x="48.35" y="82.90" angle="180.00" type="DEFAULT_VEHTYPE" speed="7.68" pos="17.10" lane="NC_0" slope="0.00"/>
        <vehicle id="overtaking" x="9.08" y="-1.65" angle="90.00" type="DEFAULT_VEHTYPE" speed="6.08" pos="9.08" lane="VODUGES_beg_0" slope="0.00"/>
        <vehicle id="stopped" x="62.52" y="-1.65" angle="90.00" type="DEFAULT_VEHTYPE" speed="0.00" pos="7.77" lane="VODUGES_end_0" slope="0.00"/>
        <vehicle id="stopped2" x="44.97" y="-1.65" angle="90.00" type="DEFAULT_VEHTYPE" speed="0.48" pos="44.97" lane="VODUGES_beg_0" slope="0.00"/>
    </timestep>
    <timestep time="8.00">
        <vehicle id="oncoming1" x="26.98" y="1.65" angle="270.00" type="DEFAULT_VEHTYPE" speed="9.24" pos="18.27" lane="-VODUGES_beg_0" slope="0.00"/>
        <vehicle id="oncoming2" x="48.35" y="54.68" angle="180.00" type="DEFAULT_VEHTYPE" speed="10.17" pos="45.32" lane="NC_0" slope="0.00"/>
        <vehicle id="oncoming3" x="48.35" y="74.62" angle="180.00" type="DEFAULT_VEHTYPE" speed="8.88" pos="25.38" lane="NC_0" slope="0.00"/>
        <vehicle id="overtaking" x="15.88" y="-1.65" angle="90.00" type="DEFAULT_VEHTYPE" speed="7.53" pos="15.88" lane="VODUGES_beg_0" slope="0.00"/>
        <vehicle id="stopped" x="62.64" y="-1.65" angle="90.00" type="DEFAULT_VEHTYPE" speed="0.25" pos="7.89" lane="VODUGES_end_0" slope="0.00"/>
        <vehicle id="stopped2" x="44.99" y="-1.65" angle="90.00" type="DEFAULT_VEHTYPE" speed="0.00" pos="44.99" lane="VODUGES_beg_0" slope="0.00"/>
    </timestep>
    <timestep time="9.00">
        <vehicle id="oncoming1" x="16.58" y="1.65" angle="270.00" type="DEFAULT_VEHTYPE" speed="11.54" pos="28.67" lane="-VODUGES_beg_0" slope="0.00"/>
        <vehicle id="oncoming2" x="48.35" y="43.71" angle="180.00" type="DEFAULT_VEHTYPE" speed="11.78" pos="56.29" lane="NC_0" slope="0.00"/>
        <vehicle id="oncoming3" x="48.35" y="64.69" angle="180.00" type="DEFAULT_VEHTYPE" speed="10.98" pos="35.31" lane="NC_0" slope="0.00"/>
        <vehicle id="overtaking" x="24.51" y="-1.65" angle="90.00" type="DEFAULT_VEHTYPE" speed="9.73" pos="24.51" lane="VODUGES_beg_0" slope="0.00"/>
        <vehicle id="stopped" x="62.65" y="-1.65" angle="90.00" type="DEFAULT_VEHTYPE" speed="0.00" pos="7.90" lane="VODUGES_end_0" slope="0.00"/>
        <vehicle id="stopped2" x="44.99" y="-1.65" angle="90.00" type="DEFAULT_VEHTYPE" speed="0.00" pos="44.99" lane="VODUGES_beg_0" slope="0.00"/>
    </timestep>
    <timestep time="10.00">
        <vehicle id="oncoming1" x="4.49" y="1.65" angle="270.00" type="DEFAULT_VEHTYPE" speed="12.65" pos="40.76" lane="-VODUGES_beg_0" slope="0.00"/>
        <vehicle id="oncoming2" x="48.35" y="30.96" angle="180.00" type="DEFAULT_VEHTYPE" speed="13.72" pos="69.04" lane="NC_0" slope="0.00"/>
        <vehicle id="oncoming3" x="48.35" y="53.06" angle="180.00" type="DEFAULT_VEHTYPE" speed="12.27" pos="46.94" lane="NC_0" slope="0.00"/>
        <vehicle id="overtaking" x="32.46" y="-1.65" angle="90.00" type="DEFAULT_VEHTYPE" speed="6.15" pos="32.46" lane="VODUGES_beg_0" slope="0.00"/>
        <vehicle id="stopped" x="62.65" y="-1.65" angle="90.00" type="DEFAULT_VEHTYPE" speed="0.00" pos="7.90" lane="VODUGES_end_0" slope="0.00"/>
        <vehicle id="stopped2" x="44.99" y="-1.65" angle="90.00" type="DEFAULT_VEHTYPE" speed="0.00" pos="44.99" lane="VODUGES_beg_0" slope="0.00"/>
    </timestep>
    <timestep time="11.00">
        <vehicle id="oncoming2" x="48.35" y="18.65" angle="180.00" type="DEFAULT_VEHTYPE" speed="10.88" pos="81.35" lane="NC_0" slope="0.00"/>
        <vehicle id="oncoming3" x="48.35" y="40.35" angle="180.00" type="DEFAULT_VEHTYPE" speed="13.15" pos="59.65" lane="NC_0" slope="0.00"/>
        <vehicle id="overtaking" x="36.65" y="-1.65" angle="90.00" type="DEFAULT_VEHTYPE" speed="2.23" pos="36.65" lane="VODUGES_beg_0" slope="0.00"/>
        <vehicle id="stopped" x="62.65" y="-1.65" angle="90.00" type="DEFAULT_VEHTYPE" speed="0.00" pos="7.90" lane="VODUGES_end_0" slope="0.00"/>
        <vehicle id="stopped2" x="44.99" y="-1.65" angle="90.00" type="DEFAULT_VEHTYPE" speed="0.00" pos="44.99" lane="VODUGES_beg_0" slope="0.00"/>
    </timestep>
    <timestep time="12.00">
        <vehicle id="oncoming2" x="48.35" y="9.91" angle="180.00" type="DEFAULT_VEHTYPE" speed="6.60" pos="90.09" lane="NC_0" slope="0.00"/>
        <vehicle id="oncoming3" x="48.35" y="28.41" angle="180.00" type="DEFAULT_VEHTYPE" speed="10.74" pos="71.59" lane="NC_0" slope="0.00"/>
        <vehicle id="overtaking" x="37.20" y="-1.65" angle="90.00" type="DEFAULT_VEHTYPE" speed="0.00" pos="37.20" lane="VODUGES_beg_0" slope="0.00"/>
        <vehicle id="stopped" x="62.65" y="-1.65" angle="90.00" type="DEFAULT_VEHTYPE" speed="0.00" pos="7.90" lane="VODUGES_end_0" slope="0.00"/>
        <vehicle id="stopped2" x="44.99" y="-1.65" angle="90.00" type="DEFAULT_VEHTYPE" speed="0.00" pos="44.99" lane="VODUGES_beg_0" slope="0.00"/>
    </timestep>
    <timestep time="13.00">
        <vehicle id="oncoming2" x="48.35" y="5.57" angle="180.00" type="DEFAULT_VEHTYPE" speed="2.10" pos="94.43" lane="NC_0" slope="0.00"/>
        <vehicle id="oncoming3" x="48.35" y="19.81" angle="180.00" type="DEFAULT_VEHTYPE" speed="6.46" pos="80.19" lane="NC_0" slope="0.00"/>
        <vehicle id="overtaking" x="37.37" y="-1.65" angle="90.00" type="DEFAULT_VEHTYPE" speed="0.34" pos="37.37" lane="VODUGES_beg_0" slope="0.00"/>
        <vehicle id="stopped" x="62.65" y="-1.65" angle="90.00" type="DEFAULT_VEHTYPE" speed="0.00" pos="7.90" lane="VODUGES_end_0" slope="0.00"/>
        <vehicle id="stopped2" x="44.99" y="-1.65" angle="90.00" type="DEFAULT_VEHTYPE" speed="0.00" pos="44.99" lane="VODUGES_beg_0" slope="0.00"/>
    </timestep>
    <timestep time="14.00">
        <vehicle id="oncoming2" x="47.73" y="2.68" angle="187.24" type="DEFAULT_VEHTYPE" speed="3.94" pos="2.20" lane=":C_0_0" slope="0.00"/>
        <vehicle id="oncoming3" x="48.35" y="14.61" angle="180.00" type="DEFAULT_VEHTYPE" speed="3.94" pos="85.39" lane="NC_0" slope="0.00"/>
        <vehicle id="overtaking" x="37.38" y="-1.65" angle="90.00" type="DEFAULT_VEHTYPE" speed="0.00" pos="37.38" lane="VODUGES_beg_0" slope="0.00"/>
        <vehicle id="stopped" x="62.65" y="-1.65" angle="90.00" type="DEFAULT_VEHTYPE" speed="0.00" pos="7.90" lane="VODUGES_end_0" slope="0.00"/>
        <vehicle id="stopped2" x="44.99" y="-1.65" angle="90.00" type="DEFAULT_VEHTYPE" speed="0.00" pos="44.99" lane="VODUGES_beg_0" slope="0.00"/>
    </timestep>
    <timestep time="15.00">
        <vehicle id="oncoming2" x="43.43" y="1.65" angle="253.24" type="DEFAULT_VEHTYPE" speed="5.30" pos="1.82" lane="-VODUGES_beg_0" slope="0.00"/>
        <vehicle id="oncoming3" x="48.35" y="10.47" angle="180.00" type="DEFAULT_VEHTYPE" speed="4.34" pos="89.53" lane="NC_0" slope="0.00"/>
        <vehicle id="overtaking" x="37.48" y="-1.65" angle="90.00" type="DEFAULT_VEHTYPE" speed="0.19" pos="37.48" lane="VODUGES_beg_0" slope="0.00"/>
        <vehicle id="stopped" x="62.65" y="-1.65" angle="90.00" type="DEFAULT_VEHTYPE" speed="0.00" pos="7.90" lane="VODUGES_end_0" slope="0.00"/>
        <vehicle id="stopped2" x="44.99" y="-1.65" angle="90.00" type="DEFAULT_VEHTYPE" speed="0.00" pos="44.99" lane="VODUGES_beg_0" slope="0.00"/>
    </timestep>
    <timestep time="16.00">
        <vehicle id="oncoming2" x="37.01" y="1.65" angle="270.00" type="DEFAULT_VEHTYPE" speed="7.54" pos="8.24" lane="-VODUGES_beg_0" slope="0.00"/>
        <vehicle id="oncoming3" x="48.35" y="6.46" angle="180.00" type="DEFAULT_VEHTYPE" speed="3.67" pos="93.54" lane="NC_0" slope="0.00"/>
        <vehicle id="overtaking" x="37.48" y="-1.65" angle="90.00" type="DEFAULT_VEHTYPE" speed="0.00" pos="37.48" lane="VODUGES_beg_0" slope="0.00"/>
        <vehicle id="stopped" x="62.65" y="-1.65" angle="90.00" type="DEFAULT_VEHTYPE" speed="0.00" pos="7.90" lane="VODUGES_end_0" slope="0.00"/>
        <vehicle id="stopped2" x="44.99" y="-1.65" angle="90.00" type="DEFAULT_VEHTYPE" speed="0.00" pos="44.99" lane="VODUGES_beg_0" slope="0.00"/>
    </timestep>
    <timestep time="17.00">
        <vehicle id="oncoming2" x="28.29" y="1.65" angle="270.00" type="DEFAULT_VEHTYPE" speed="9.91" pos="16.96" lane="-VODUGES_beg_0" slope="0.00"/>
        <vehicle id="oncoming3" x="46.97" y="2.06" angle="197.04" type="DEFAULT_VEHTYPE" speed="6.16" pos="3.20" lane=":C_0_0" slope="0.00"/>
        <vehicle id="overtaking" x="37.49" y="-1.65" angle="90.00" type="DEFAULT_VEHTYPE" speed="0.01" pos="37.49" lane="VODUGES_beg_0" slope="0.00"/>
        <vehicle id="stopped" x="62.65" y="-1.65" angle="90.00" type="DEFAULT_VEHTYPE" speed="0.00" pos="7.90" lane="VODUGES_end_0" slope="0.00"/>
        <vehicle id="stopped2" x="44.99" y="-1.65" angle="90.00" type="DEFAULT_VEHTYPE" speed="0.00" pos="44.99" lane="VODUGES_beg_0" slope="0.00"/>
    </timestep>
    <timestep time="18.00">
        <vehicle id="oncoming2" x="17.22" y="1.65" angle="270.00" type="DEFAULT_VEHTYPE" speed="12.24" pos="28.03" lane="-VODUGES_beg_0" slope="0.00"/>
        <vehicle id="oncoming3" x="39.96" y="1.65" angle="270.00" type="DEFAULT_VEHTYPE" speed="8.02" pos="5.29" lane="-VODUGES_beg_0" slope="0.00"/>
        <vehicle id="overtaking" x="37.49" y="-1.65" angle="90.00" type="DEFAULT_VEHTYPE" speed="0.00" pos="37.49" lane="VODUGES_beg_0" slope="0.00"/>
        <vehicle id="stopped" x="62.65" y="-1.65" angle="90.00" type="DEFAULT_VEHTYPE" speed="0.00" pos="7.90" lane="VODUGES_end_0" slope="0.00"/>
        <vehicle id="stopped2" x="44.99" y="-1.65" angle="90.00" type="DEFAULT_VEHTYPE" speed="0.00" pos="44.99" lane="VODUGES_beg_0" slope="0.00"/>
    </timestep>
    <timestep time="19.00">
        <vehicle id="oncoming2" x="4.21" y="1.65" angle="270.00" type="DEFAULT_VEHTYPE" speed="13.79" pos="41.04" lane="-VODUGES_beg_0" slope="0.00"/>
        <vehicle id="oncoming3" x="31.10" y="1.65" angle="270.00" type="DEFAULT_VEHTYPE" speed="9.68" pos="14.15" lane="-VODUGES_beg_0" slope="0.00"/>
        <vehicle id="overtaking" x="37.49" y="-1.65" angle="90.00" type="DEFAULT_VEHTYPE" speed="0.00" pos="37.49" lane="VODUGES_beg_0" slope="0.00"/>
        <vehicle id="stopped" x="62.65" y="-1.65" angle="90.00" type="DEFAULT_VEHTYPE" speed="0.00" pos="7.90" lane="VODUGES_end_0" slope="0.00"/>
        <vehicle id="stopped2" x="44.99" y="-1.65" angle="90.00" type="DEFAULT_VEHTYPE" speed="0.00" pos="44.99" lane="VODUGES_beg_0" slope="0.00"/>
    </timestep>
    <timestep time="20.00">
        <vehicle id="oncoming3" x="20.40" y="1.65" angle="270.00" type="DEFAULT_VEHTYPE" speed="11.73" pos="24.85" lane="-VODUGES_beg_0" slope="0.00"/>
        <vehicle id="overtaking" x="37.49" y="1.65" angle="90.00" type="DEFAULT_VEHTYPE" speed="0.00" pos="7.76" lane="-VODUGES_beg_0" slope="0.00"/>
        <vehicle id="stopped" x="62.65" y="-1.65" angle="90.00" type="DEFAULT_VEHTYPE" speed="0.00" pos="7.90" lane="VODUGES_end_0" slope="0.00"/>
        <vehicle id="stopped2" x="44.99" y="-1.65" angle="90.00" type="DEFAULT_VEHTYPE" speed="0.00" pos="44.99" lane="VODUGES_beg_0" slope="0.00"/>
    </timestep>
    <timestep time="21.00">
        <vehicle id="oncoming3" x="7.92" y="1.65" angle="270.00" type="DEFAULT_VEHTYPE" speed="13.22" pos="37.33" lane="-VODUGES_beg_0" slope="0.00"/>
        <vehicle id="overtaking" x="38.25" y="1.65" angle="90.00" type="DEFAULT_VEHTYPE" speed="1.53" pos="7.00" lane="-VODUGES_beg_0" slope="0.00"/>
        <vehicle id="stopped" x="62.65" y="-1.65" angle="90.00" type="DEFAULT_VEHTYPE" speed="0.00" pos="7.90" lane="VODUGES_end_0" slope="0.00"/>
        <vehicle id="stopped2" x="44.99" y="-1.65" angle="90.00" type="DEFAULT_VEHTYPE" speed="0.00" pos="44.99" lane="VODUGES_beg_0" slope="0.00"/>
    </timestep>
    <timestep time="22.00">
        <vehicle id="overtaking" x="40.45" y="1.65" angle="90.00" type="DEFAULT_VEHTYPE" speed="2.86" pos="4.80" lane="-VODUGES_beg_0" slope="0.00"/>
        <vehicle id="stopped" x="62.65" y="-1.65" angle="90.00" type="DEFAULT_VEHTYPE" speed="0.00" pos="7.90" lane="VODUGES_end_0" slope="0.00"/>
        <vehicle id="stopped2" x="44.99" y="-1.65" angle="90.00" type="DEFAULT_VEHTYPE" speed="0.00" pos="44.99" lane="VODUGES_beg_0" slope="0.00"/>
    </timestep>
    <timestep time="23.00">
        <vehicle id="overtaking" x="44.54" y="1.65" angle="90.00" type="DEFAULT_VEHTYPE" speed="5.32" pos="0.71" lane="-VODUGES_beg_0" slope="0.00"/>
        <vehicle id="stopped" x="62.65" y="-1.65" angle="90.00" type="DEFAULT_VEHTYPE" speed="0.00" pos="7.90" lane="VODUGES_end_0" slope="0.00"/>
        <vehicle id="stopped2" x="44.99" y="-1.65" angle="90.00" type="DEFAULT_VEHTYPE" speed="0.00" pos="44.99" lane="VODUGES_beg_0" slope="0.00"/>
    </timestep>
    <timestep time="24.00">
        <vehicle id="overtaking" x="50.55" y="1.65" angle="90.00" type="DEFAULT_VEHTYPE" speed="6.72" pos="4.20" lane=":C_3_0" slope="0.00"/>
        <vehicle id="stopped" x="62.65" y="-1.65" angle="90.00" type="DEFAULT_VEHTYPE" speed="0.00" pos="7.90" lane="VODUGES_end_0" slope="0.00"/>
        <vehicle id="stopped2" x="44.99" y="-1.65" angle="90.00" type="DEFAULT_VEHTYPE" speed="0.00" pos="44.99" lane="VODUGES_beg_0" slope="0.00"/>
    </timestep>
    <timestep time="25.00">
        <vehicle id="overtaking" x="58.11" y="1.65" angle="90.00" type="DEFAULT_VEHTYPE" speed="8.39" pos="137.14" lane="-VODUGES_end_0" slope="0.00"/>
        <vehicle id="stopped" x="62.65" y="-1.65" angle="90.00" type="DEFAULT_VEHTYPE" speed="0.00" pos="7.90" lane="VODUGES_end_0" slope="0.00"/>
        <vehicle id="stopped2" x="44.99" y="-1.65" angle="90.00" type="DEFAULT_VEHTYPE" speed="0.00" pos="44.99" lane="VODUGES_beg_0" slope="0.00"/>
    </timestep>
    <timestep time="26.00">
        <vehicle id="overtaking" x="67.43" y="1.65" angle="90.00" type="DEFAULT_VEHTYPE" speed="10.25" pos="127.82" lane="-VODUGES_end_0" slope="0.00"/>
        <vehicle id="stopped" x="62.65" y="-1.65" angle="90.00" type="DEFAULT_VEHTYPE" speed="0.00" pos="7.90" lane="VODUGES_end_0" slope="0.00"/>
        <vehicle id="stopped2" x="44.99" y="-1.65" angle="90.00" type="DEFAULT_VEHTYPE" speed="0.00" pos="44.99" lane="VODUGES_beg_0" slope="0.00"/>
    </timestep>
    <timestep time="27.00">
        <vehicle id="overtaking" x="78.71" y="-1.65" angle="90.00" type="DEFAULT_VEHTYPE" speed="12.31" pos="23.96" lane="VODUGES_end_0" slope="0.00"/>
        <vehicle id="stopped" x="62.65" y="-1.65" angle="90.00" type="DEFAULT_VEHTYPE" speed="0.00" pos="7.90" lane="VODUGES_end_0" slope="0.00"/>
        <vehicle id="stopped2" x="44.99" y="-1.65" angle="90.00" type="DEFAULT_VEHTYPE" speed="0.00" pos="44.99" lane="VODUGES_beg_0" slope="0.00"/>
    </timestep>
    <timestep time="28.00">
        <vehicle id="overtaking" x="91.75" y="-1.65" angle="90.00" type="DEFAULT_VEHTYPE" speed="13.76" pos="37.00" lane="VODUGES_end_0" slope="0.00"/>
        <vehicle id="stopped" x="62.65" y="-1.65" angle="90.00" type="DEFAULT_VEHTYPE" speed="0.00" pos="7.90" lane="VODUGES_end_0" slope="0.00"/>
        <vehicle id="stopped2" x="44.99" y="-1.65" angle="90.00" type="DEFAULT_VEHTYPE" speed="0.00" pos="44.99" lane="VODUGES_beg_0" slope="0.00"/>
    </timestep>
    <timestep time="29.00">
        <vehicle id="overtaking" x="105.07" y="-1.65" angle="90.00" type="DEFAULT_VEHTYPE" speed="12.87" pos="50.32" lane="VODUGES_end_0" slope="0.00"/>
        <vehicle id="stopped" x="62.65" y="-1.65" angle="90.00" type="DEFAULT_VEHTYPE" speed="0.00" pos="7.90" lane="VODUGES_end_0" slope="0.00"/>
        <vehicle id="stopped2" x="44.99" y="-1.65" angle="90.00" type="DEFAULT_VEHTYPE" speed="0.00" pos="44.99" lane="VODUGES_beg_0" slope="0.00"/>
    </timestep>
    <timestep time="30.00">
        <vehicle id="overtaking" x="118.37" y="-1.65" angle="90.00" type="DEFAULT_VEHTYPE" speed="13.73" pos="63.62" lane="VODUGES_end_0" slope="0.00"/>
        <vehicle id="stopped" x="62.65" y="-1.65" angle="90.00" type="DEFAULT_VEHTYPE" speed="0.00" pos="7.90" lane="VODUGES_end_0" slope="0.00"/>
        <vehicle id="stopped2" x="44.99" y="-1.65" angle="90.00" type="DEFAULT_VEHTYPE" speed="0.00" pos="44.99" lane="VODUGES_beg_0" slope="0.00"/>
    </timestep>
    <timestep time="31.00">
        <vehicle id="overtaking" x="131.60" y="-1.65" angle="90.00" type="DEFAULT_VEHTYPE" speed="12.74" pos="76.85" lane="VODUGES_end_0" slope="0.00"/>
        <vehicle id="stopped" x="62.65" y="-1.65" angle="90.00" type="DEFAULT_VEHTYPE" speed="0.00" pos="7.90" lane="VODUGES_end_0" slope="0.00"/>
        <vehicle id="stopped2" x="44.99" y="-1.65" angle="90.00" type="DEFAULT_VEHTYPE" speed="0.00" pos="44.99" lane="VODUGES_beg_0" slope="0.00"/>
    </timestep>
    <timestep time="32.00">
        <vehicle id="overtaking" x="144.89" y="-1.65" angle="90.00" type="DEFAULT_VEHTYPE" speed="13.83" pos="90.14" lane="VODUGES_end_0" slope="0.00"/>
        <vehicle id="stopped" x="62.65" y="-1.65" angle="90.00" type="DEFAULT_VEHTYPE" speed="0.00" pos="7.90" lane="VODUGES_end_0" slope="0.00"/>
        <vehicle id="stopped2" x="44.99" y="-1.65" angle="90.00" type="DEFAULT_VEHTYPE" speed="0.00" pos="44.99" lane="VODUGES_beg_0" slope="0.00"/>
    </timestep>
    <timestep time="33.00">
        <vehicle id="overtaking" x="158.12" y="-1.65" angle="90.00" type="DEFAULT_VEHTYPE" speed="12.62" pos="103.37" lane="VODUGES_end_0" slope="0.00"/>
        <vehicle id="stopped" x="62.65" y="-1.65" angle="90.00" type="DEFAULT_VEHTYPE" speed="0.00" pos="7.90" lane="VODUGES_end_0" slope="0.00"/>
        <vehicle id="stopped2" x="44.99" y="-1.65" angle="90.00" type="DEFAULT_VEHTYPE" speed="0.00" pos="44.99" lane="VODUGES_beg_0" slope="0.00"/>
    </timestep>
    <timestep time="34.00">
        <vehicle id="overtaking" x="170.79" y="-1.65" angle="90.00" type="DEFAULT_VEHTYPE" speed="12.71" pos="116.04" lane="VODUGES_end_0" slope="0.00"/>
        <vehicle id="stopped" x="62.65" y="-1.65" angle="90.00" type="DEFAULT_VEHTYPE" speed="0.00" pos="7.90" lane="VODUGES_end_0" slope="0.00"/>
        <vehicle id="stopped2" x="44.99" y="-1.65" angle="90.00" type="DEFAULT_VEHTYPE" speed="0.00" pos="44.99" lane="VODUGES_beg_0" slope="0.00"/>
    </timestep>
    <timestep time="35.00">
        <vehicle id="overtaking" x="183.81" y="-1.65" angle="90.00" type="DEFAULT_VEHTYPE" speed="13.33" pos="129.06" lane="VODUGES_end_0" slope="0.00"/>
        <vehicle id="stopped" x="62.65" y="-1.65" angle="90.00" type="DEFAULT_VEHTYPE" speed="0.00" pos="7.90" lane="VODUGES_end_0" slope="0.00"/>
        <vehicle id="stopped2" x="44.99" y="-1.65" angle="90.00" type="DEFAULT_VEHTYPE" speed="0.00" pos="44.99" lane="VODUGES_beg_0" slope="0.00"/>
    </timestep>
    <timestep time="36.00">
        <vehicle id="stopped" x="62.65" y="-1.65" angle="90.00" type="DEFAULT_VEHTYPE" speed="0.00" pos="7.90" lane="VODUGES_end_0" slope="0.00"/>
        <vehicle id="stopped2" x="44.99" y="-1.65" angle="90.00" type="DEFAULT_VEHTYPE" speed="0.00" pos="44.99" lane="VODUGES_beg_0" slope="0.00"/>
    </timestep>
    <timestep time="37.00">
        <vehicle id="stopped" x="62.65" y="-1.65" angle="90.00" type="DEFAULT_VEHTYPE" speed="0.00" pos="7.90" lane="VODUGES_end_0" slope="0.00"/>
        <vehicle id="stopped2" x="44.99" y="-1.65" angle="90.00" type="DEFAULT_VEHTYPE" speed="0.00" pos="44.99" lane="VODUGES_beg_0" slope="0.00"/>
    </timestep>
    <timestep time="38.00">
        <vehicle id="stopped" x="62.65" y="-1.65" angle="90.00" type="DEFAULT_VEHTYPE" speed="0.00" pos="7.90" lane="VODUGES_end_0" slope="0.00"/>
        <vehicle id="stopped2" x="44.99" y="-1.65" angle="90.00" type="DEFAULT_VEHTYPE" speed="0.00" pos="44.99" lane="VODUGES_beg_0" slope="0.00"/>
    </timestep>
    <timestep time="39.00">
        <vehicle id="stopped" x="62.65" y="-1.65" angle="90.00" type="DEFAULT_VEHTYPE" speed="0.00" pos="7.90" lane="VODUGES_end_0" slope="0.00"/>
        <vehicle id="stopped2" x="44.99" y="-1.65" angle="90.00" type="DEFAULT_VEHTYPE" speed="0.00" pos="44.99" lane="VODUGES_beg_0" slope="0.00"/>
    </timestep>
    <timestep time="40.00">
        <vehicle id="stopped" x="62.65" y="-1.65" angle="90.00" type="DEFAULT_VEHTYPE" speed="0.00" pos="7.90" lane="VODUGES_end_0" slope="0.00"/>
        <vehicle id="stopped2" x="44.99" y="-1.65" angle="90.00" type="DEFAULT_VEHTYPE" speed="0.00" pos="44.99" lane="VODUGES_beg_0" slope="0.00"/>
    </timestep>
    <timestep time="41.00">
        <vehicle id="stopped" x="62.65" y="-1.65" angle="90.00" type="DEFAULT_VEHTYPE" speed="0.00" pos="7.90" lane="VODUGES_end_0" slope="0.00"/>
        <vehicle id="stopped2" x="44.99" y="-1.65" angle="90.00" type="DEFAULT_VEHTYPE" speed="0.00" pos="44.99" lane="VODUGES_beg_0" slope="0.00"/>
    </timestep>
    <timestep time="42.00">
        <vehicle id="stopped" x="62.65" y="-1.65" angle="90.00" type="DEFAULT_VEHTYPE" speed="0.00" pos="7.90" lane="VODUGES_end_0" slope="0.00"/>
        <vehicle id="stopped2" x="44.99" y="-1.65" angle="90.00" type="DEFAULT_VEHTYPE" speed="0.00" pos="44.99" lane="VODUGES_beg_0" slope="0.00"/>
    </timestep>
    <timestep time="43.00">
        <vehicle id="stopped" x="62.65" y="-1.65" angle="90.00" type="DEFAULT_VEHTYPE" speed="0.00" pos="7.90" lane="VODUGES_end_0" slope="0.00"/>
        <vehicle id="stopped2" x="44.99" y="-1.65" angle="90.00" type="DEFAULT_VEHTYPE" speed="0.00" pos="44.99" lane="VODUGES_beg_0" slope="0.00"/>
    </timestep>
    <timestep time="44.00">
        <vehicle id="stopped" x="62.65" y="-1.65" angle="90.00" type="DEFAULT_VEHTYPE" speed="0.00" pos="7.90" lane="VODUGES_end_0" slope="0.00"/>
        <vehicle id="stopped2" x="44.99" y="-1.65" angle="90.00" type="DEFAULT_VEHTYPE" speed="0.00" pos="44.99" lane="VODUGES_beg_0" slope="0.00"/>
    </timestep>
    <timestep time="45.00">
        <vehicle id="stopped" x="62.65" y="-1.65" angle="90.00" type="DEFAULT_VEHTYPE" speed="0.00" pos="7.90" lane="VODUGES_end_0" slope="0.00"/>
        <vehicle id="stopped2" x="44.99" y="-1.65" angle="90.00" type="DEFAULT_VEHTYPE" speed="0.00" pos="44.99" lane="VODUGES_beg_0" slope="0.00"/>
    </timestep>
    <timestep time="46.00">
        <vehicle id="stopped" x="62.65" y="-1.65" angle="90.00" type="DEFAULT_VEHTYPE" speed="0.00" pos="7.90" lane="VODUGES_end_0" slope="0.00"/>
        <vehicle id="stopped2" x="44.99" y="-1.65" angle="90.00" type="DEFAULT_VEHTYPE" speed="0.00" pos="44.99" lane="VODUGES_beg_0" slope="0.00"/>
    </timestep>
    <timestep time="47.00">
        <vehicle id="stopped" x="62.65" y="-1.65" angle="90.00" type="DEFAULT_VEHTYPE" speed="0.00" pos="7.90" lane="VODUGES_end_0" slope="0.00"/>
        <vehicle id="stopped2" x="44.99" y="-1.65" angle="90.00" type="DEFAULT_VEHTYPE" speed="0.00" pos="44.99" lane="VODUGES_beg_0" slope="0.00"/>
    </timestep>
    <timestep time="48.00">
        <vehicle id="stopped" x="62.65" y="-1.65" angle="90.00" type="DEFAULT_VEHTYPE" speed="0.00" pos="7.90" lane="VODUGES_end_0" slope="0.00"/>
        <vehicle id="stopped2" x="44.99" y="-1.65" angle="90.00" type="DEFAULT_VEHTYPE" speed="0.00" pos="44.99" lane="VODUGES_beg_0" slope="0.00"/>
    </timestep>
    <timestep time="49.00">
        <vehicle id="stopped" x="62.65" y="-1.65" angle="90.00" type="DEFAULT_VEHTYPE" speed="0.00" pos="7.90" lane="VODUGES_end_0" slope="0.00"/>
        <vehicle id="stopped2" x="44.99" y="-1.65" angle="90.00" type="DEFAULT_VEHTYPE" speed="0.00" pos="44.99" lane="VODUGES_beg_0" slope="0.00"/>
    </timestep>
    <timestep time="50.00">
        <vehicle id="stopped" x="62.65" y="-1.65" angle="90.00" type="DEFAULT_VEHTYPE" speed="0.00" pos="7.90" lane="VODUGES_end_0" slope="0.00"/>
        <vehicle id="stopped2" x="44.99" y="-1.65" angle="90.00" type="DEFAULT_VEHTYPE" speed="0.00" pos="44.99" lane="VODUGES_beg_0" slope="0.00"/>
    </timestep>
    <timestep time="51.00">
        <vehicle id="stopped" x="62.65" y="-1.65" angle="90.00" type="DEFAULT_VEHTYPE" speed="0.00" pos="7.90" lane="VODUGES_end_0" slope="0.00"/>
        <vehicle id="stopped2" x="44.99" y="-1.65" angle="90.00" type="DEFAULT_VEHTYPE" speed="0.00" pos="44.99" lane="VODUGES_beg_0" slope="0.00"/>
    </timestep>
    <timestep time="52.00">
        <vehicle id="stopped" x="62.65" y="-1.65" angle="90.00" type="DEFAULT_VEHTYPE" speed="0.00" pos="7.90" lane="VODUGES_end_0" slope="0.00"/>
        <vehicle id="stopped2" x="44.99" y="-1.65" angle="90.00" type="DEFAULT_VEHTYPE" speed="0.00" pos="44.99" lane="VODUGES_beg_0" slope="0.00"/>
    </timestep>
    <timestep time="53.00">
        <vehicle id="stopped" x="62.65" y="-1.65" angle="90.00" type="DEFAULT_VEHTYPE" speed="0.00" pos="7.90" lane="VODUGES_end_0" slope="0.00"/>
        <vehicle id="stopped2" x="44.99" y="-1.65" angle="90.00" type="DEFAULT_VEHTYPE" speed="0.00" pos="44.99" lane="VODUGES_beg_0" slope="0.00"/>
    </timestep>
    <timestep time="54.00">
        <vehicle id="stopped" x="62.65" y="-1.65" angle="90.00" type="DEFAULT_VEHTYPE" speed="0.00" pos="7.90" lane="VODUGES_end_0" slope="0.00"/>