<?xml version="1.0" encoding="UTF-8"?>

<!-- generated on Thu May 12 15:24:57 2016 by SUMO Version dev-SVN-r20713
<?xml version="1.0" encoding="UTF-8"?>

<configuration xmlns:xsi="http://www.w3.org/2001/XMLSchema-instance" xsi:noNamespaceSchemaLocation="http://sumo.dlr.de/xsd/sumoConfiguration.xsd">

    <input>
        <net-file value="net2.net.xml"/>
        <route-files value="input_routes.rou.xml"/>
    </input>

    <output>
        <fcd-output value="fcd.xml"/>
        <tripinfo-output value="tripinfos.xml"/>
    </output>

    <report>
        <xml-validation value="never"/>
        <no-step-log value="true"/>
    </report>

</configuration>
-->

<tripinfos xmlns:xsi="http://www.w3.org/2001/XMLSchema-instance" xsi:noNamespaceSchemaLocation="http://sumo.dlr.de/xsd/tripinfo_file.xsd">
    <tripinfo id="oncoming1" depart="3.00" departLane="NC_0" departPos="94.25" departSpeed="0.00" departDelay="0.00" arrival="11.00" arrivalLane="-VODUGES_beg_0" arrivalPos="45.25" arrivalSpeed="13.36" duration="8.00" routeLength="51.25" waitSteps="0" timeLoss="3.21" rerouteNo="0" devices="tripinfo_oncoming1" vType="DEFAULT_VEHTYPE" vaporized=""/>
    <tripinfo id="oncoming2" depart="3.00" departLane="NC_0" departPos="20.00" departSpeed="0.00" departDelay="0.00" arrival="20.00" arrivalLane="-VODUGES_beg_0" arrivalPos="45.25" arrivalSpeed="13.01" duration="17.00" routeLength="125.50" waitSteps="0" timeLoss="6.83" rerouteNo="0" devices="tripinfo_oncoming2" vType="DEFAULT_VEHTYPE" vaporized=""/>
    <tripinfo id="oncoming3" depart="3.00" departLane="NC_0" departPos="0.00" departSpeed="0.00" departDelay="0.00" arrival="22.00" arrivalLane="-VODUGES_beg_0" arrivalPos="45.25" arrivalSpeed="13.42" duration="19.00" routeLength="145.50" waitSteps="0" timeLoss="7.64" rerouteNo="0" devices="tripinfo_oncoming3" vType="DEFAULT_VEHTYPE" vaporized=""/>
    <tripinfo id="overtaking" depart="4.00" departLane="VODUGES_beg_0" departPos="0.00" departSpeed="0.00" departDelay="2.00" arrival="36.00" arrivalLane="VODUGES_end_0" arrivalPos="140.50" arrivalSpeed="13.40" duration="32.00" routeLength="195.25" waitSteps="7" timeLoss="18.67" rerouteNo="0" devices="tripinfo_overtaking" vType="DEFAULT_VEHTYPE" vaporized=""/>
    <tripinfo id="stopped" depart="0.00" departLane="VODUGES_beg_0" departPos="40.00" departSpeed="0.00" departDelay="0.00" arrival="124.00" arrivalLane="VODUGES_end_0" arrivalPos="140.50" arrivalSpeed="12.78" duration="124.00" routeLength="155.25" waitSteps="1" timeLoss="11.46" rerouteNo="0" devices="tripinfo_stopped" vType="DEFAULT_VEHTYPE" vaporized=""/>
    <tripinfo id="stopped2" depart="4.00" departLane="VODUGES_beg_0" departPos="40.00" departSpeed="0.00" departDelay="2.00" arrival="126.00" arrivalLane="VODUGES_end_0" arrivalPos="140.50" arrivalSpeed="12.60" duration="122.00" routeLength="155.25" waitSteps="2" timeLoss="9.33" rerouteNo="0" devices="tripinfo_stopped2" vType="DEFAULT_VEHTYPE" vaporized=""/>
</tripinfos>
