<?xml version="1.0" encoding="UTF-8"?>

<!-- generated on Tue Sep 13 12:07:54 2016 by SUMO Version dev-SVN-r21424
<?xml version="1.0" encoding="UTF-8"?>

<configuration xmlns:xsi="http://www.w3.org/2001/XMLSchema-instance" xsi:noNamespaceSchemaLocation="http://sumo.dlr.de/xsd/sumoConfiguration.xsd">

    <input>
        <net-file value="net.net.xml"/>
        <route-files value="input_routes.rou.xml"/>
        <additional-files value="input_additional.add.xml"/>
    </input>

    <time>
        <end value="1440"/>
    </time>

    <processing>
        <step-method.ballistic value="true"/>
    </processing>

    <report>
        <verbose value="true"/>
        <xml-validation value="never"/>
        <no-step-log value="true"/>
    </report>

</configuration>
-->

<meandata xmlns:xsi="http://www.w3.org/2001/XMLSchema-instance" xsi:noNamespaceSchemaLocation="http://sumo.dlr.de/xsd/meandata_file.xsd">
    <interval begin="0.00" end="1440.00" id="expect_300_vehs">
        <edge id="in1" sampledSeconds="87282.01" traveltime="1943.43" overlapTraveltime="1966.88" density="122.99" occupancy="30.75" waitingTime="77858.00" speed="0.25" departed="77" arrived="0" entered="0" left="12" laneChangedFrom="0" laneChangedTo="0"/>
        <edge id="in2" sampledSeconds="18285.96" traveltime="40.14" overlapTraveltime="40.54" density="25.84" occupancy="6.46" waitingTime="0.00" speed="12.25" departed="457" arrived="0" entered="0" left="444" laneChangedFrom="0" laneChangedTo="0"/>
        <edge id="out" sampledSeconds="17125.14" traveltime="37.75" overlapTraveltime="38.13" density="23.86" occupancy="11.93" waitingTime="0.00" speed="13.20" departed="0" arrived="444" entered="456" left="0" laneChangedFrom="0" laneChangedTo="0"/>
    </interval>
</meandata>
