<?xml version="1.0" encoding="UTF-8"?>

<!-- generated on Tue Sep 13 12:07:53 2016 by SUMO Version dev-SVN-r21424
<?xml version="1.0" encoding="UTF-8"?>

<configuration xmlns:xsi="http://www.w3.org/2001/XMLSchema-instance" xsi:noNamespaceSchemaLocation="http://sumo.dlr.de/xsd/sumoConfiguration.xsd">

    <input>
        <net-file value="net.net.xml"/>
        <route-files value="input_routes.rou.xml"/>
        <additional-files value="input_additional.add.xml"/>
    </input>

    <output>
        <vehroute-output value="vehroutes.xml"/>
    </output>

    <time>
        <end value="1440"/>
    </time>

    <processing>
        <step-method.ballistic value="true"/>
    </processing>

    <report>
        <xml-validation value="never"/>
        <duration-log.disable value="true"/>
        <no-step-log value="true"/>
    </report>

</configuration>
-->

<meandata xmlns:xsi="http://www.w3.org/2001/XMLSchema-instance" xsi:noNamespaceSchemaLocation="http://sumo.dlr.de/xsd/meandata_file.xsd">
    <interval begin="0.00" end="360.00" id="expect_300_vehs">
        <edge id="bottleneck" sampledSeconds="746.81" traveltime="3.72" overlapTraveltime="3.92" density="21.06" occupancy="10.53" waitingTime="0.00" speed="26.43" departed="0" arrived="0" entered="184" left="182" laneChangedFrom="0" laneChangedTo="0"/>
        <edge id="end" sampledSeconds="566.18" traveltime="2.93" overlapTraveltime="3.07" density="15.73" occupancy="7.86" waitingTime="0.00" speed="34.20" departed="0" arrived="180" entered="182" left="0" laneChangedFrom="0" laneChangedTo="0"/>
        <edge id="jam" sampledSeconds="3065.16" traveltime="15.14" overlapTraveltime="15.89" density="86.44" occupancy="21.61" waitingTime="1378.00" speed="6.51" departed="0" arrived="0" entered="200" left="184" laneChangedFrom="91" laneChangedTo="91"/>
        <edge id="middle" sampledSeconds="4756.79" overlapTraveltime="22.94" density="132.13" occupancy="33.03" waitingTime="2656.63" speed="4.58" departed="0" arrived="0" entered="221" left="200" laneChangedFrom="19" laneChangedTo="19"/>
        <edge id="start" sampledSeconds="4404.63" overlapTraveltime="19.55" density="122.35" occupancy="30.59" waitingTime="2292.79" speed="5.37" departed="234" arrived="0" entered="0" left="221" laneChangedFrom="15" laneChangedTo="15"/>
    </interval>
    <interval begin="360.00" end="720.00" id="expect_300_vehs">
        <edge id="bottleneck" sampledSeconds="808.03" traveltime="4.03" overlapTraveltime="4.26" density="22.79" occupancy="11.39" waitingTime="0.00" speed="24.30" departed="0" arrived="0" entered="179" left="180" laneChangedFrom="0" laneChangedTo="0"/>
        <edge id="end" sampledSeconds="573.30" traveltime="2.98" overlapTraveltime="3.12" density="15.92" occupancy="7.96" waitingTime="0.00" speed="33.65" departed="0" arrived="179" entered="180" left="0" laneChangedFrom="0" laneChangedTo="0"/>
        <edge id="jam" sampledSeconds="3872.23" traveltime="20.07" overlapTraveltime="21.29" density="109.20" occupancy="27.30" waitingTime="1800.15" speed="4.86" departed="0" arrived="0" entered="172" left="179" laneChangedFrom="133" laneChangedTo="133"/>
        <edge id="middle" sampledSeconds="7074.71" overlapTraveltime="40.54" density="196.52" occupancy="49.13" waitingTime="4420.71" speed="2.59" departed="0" arrived="0" entered="177" left="172" laneChangedFrom="1" laneChangedTo="1"/>
        <edge id="start" sampledSeconds="6962.61" overlapTraveltime="41.16" density="193.41" occupancy="48.35" waitingTime="4008.28" speed="2.55" departed="183" arrived="0" entered="0" left="177" laneChangedFrom="18" laneChangedTo="18"/>
    </interval>
    <interval begin="720.00" end="1080.00" id="expect_300_vehs">
        <edge id="bottleneck" sampledSeconds="816.29" traveltime="3.84" overlapTraveltime="4.06" density="23.02" occupancy="11.51" waitingTime="0.00" speed="25.49" departed="0" arrived="0" entered="192" left="190" laneChangedFrom="0" laneChangedTo="0"/>
        <edge id="end" sampledSeconds="599.33" traveltime="2.93" overlapTraveltime="3.07" density="16.65" occupancy="8.32" waitingTime="0.00" speed="34.22" departed="0" arrived="191" entered="190" left="0" laneChangedFrom="0" laneChangedTo="0"/>
        <edge id="jam" sampledSeconds="3456.35" traveltime="16.57" overlapTraveltime="17.53" density="97.47" occupancy="24.37" waitingTime="1566.00" speed="5.90" departed="0" arrived="0" entered="190" left="192" laneChangedFrom="152" laneChangedTo="152"/>
        <edge id="middle" sampledSeconds="6782.94" overlapTraveltime="36.22" density="188.41" occupancy="47.10" waitingTime="4256.21" speed="2.90" departed="0" arrived="0" entered="182" left="190" laneChangedFrom="1" laneChangedTo="1"/>
        <edge id="start" sampledSeconds="6823.02" overlapTraveltime="38.95" density="189.53" occupancy="47.38" waitingTime="4093.57" speed="2.70" departed="178" arrived="0" entered="0" left="182" laneChangedFrom="9" laneChangedTo="9"/>
    </interval>
    <interval begin="1080.00" end="1440.00" id="expect_300_vehs">
        <edge id="bottleneck" sampledSeconds="816.21" traveltime="3.86" overlapTraveltime="4.08" density="23.02" occupancy="11.51" waitingTime="0.00" speed="25.35" departed="0" arrived="0" entered="189" left="190" laneChangedFrom="0" laneChangedTo="0"/>
        <edge id="end" sampledSeconds="597.93" traveltime="2.93" overlapTraveltime="3.07" density="16.61" occupancy="8.30" waitingTime="0.00" speed="34.19" departed="0" arrived="191" entered="190" left="0" laneChangedFrom="0" laneChangedTo="0"/>
        <edge id="jam" sampledSeconds="3437.96" traveltime="16.66" overlapTraveltime="17.33" density="96.95" occupancy="24.24" waitingTime="1517.65" speed="5.97" departed="0" arrived="0" entered="199" left="189" laneChangedFrom="143" laneChangedTo="143"/>
        <edge id="middle" sampledSeconds="6459.95" overlapTraveltime="32.87" density="179.44" occupancy="44.86" waitingTime="4115.31" speed="3.19" departed="0" arrived="0" entered="192" left="199" laneChangedFrom="3" laneChangedTo="3"/>
        <edge id="start" sampledSeconds="6594.75" overlapTraveltime="34.73" density="183.19" occupancy="45.80" waitingTime="3827.98" speed="3.02" departed="192" arrived="0" entered="0" left="192" laneChangedFrom="24" laneChangedTo="24"/>
    </interval>
</meandata>
