<?xml version="1.0" encoding="UTF-8"?>

<!-- generated on Mon Jun  6 08:38:09 2016 by SUMO Version dev-SVN-r20877
<?xml version="1.0" encoding="UTF-8"?>

<configuration xmlns:xsi="http://www.w3.org/2001/XMLSchema-instance" xsi:noNamespaceSchemaLocation="http://sumo.dlr.de/xsd/sumoConfiguration.xsd">

    <input>
        <net-file value="net.net.xml"/>
        <route-files value="input_routes.rou.xml"/>
        <additional-files value="input_additional.add.xml"/>
    </input>

    <output>
        <vehroute-output value="vehroutes.xml"/>
    </output>

    <time>
        <end value="1440"/>
    </time>

    <processing>
        <euler value="true"/>
    </processing>

    <report>
        <xml-validation value="never"/>
        <duration-log.disable value="true"/>
        <no-step-log value="true"/>
    </report>

</configuration>
-->

<meandata xmlns:xsi="http://www.w3.org/2001/XMLSchema-instance" xsi:noNamespaceSchemaLocation="http://sumo.dlr.de/xsd/meandata_file.xsd">
    <interval begin="0.00" end="360.00" id="expect_300_vehs">
        <edge id="bottleneck" sampledSeconds="832.99" traveltime="4.24" density="23.49" occupancy="11.75" waitingTime="0.00" speed="23.23" departed="0" arrived="0" entered="188" left="186" laneChangedFrom="0" laneChangedTo="0"/>
        <edge id="end" sampledSeconds="591.29" traveltime="3.06" density="16.42" occupancy="8.21" waitingTime="0.00" speed="32.69" departed="0" arrived="184" entered="186" left="0" laneChangedFrom="0" laneChangedTo="0"/>
        <edge id="jam" sampledSeconds="3446.36" traveltime="17.06" density="97.19" occupancy="24.30" waitingTime="885.00" speed="5.77" departed="0" arrived="0" entered="198" left="188" laneChangedFrom="114" laneChangedTo="114"/>
        <edge id="middle" sampledSeconds="6029.29" traveltime="28.09" density="167.48" occupancy="41.87" waitingTime="2435.00" speed="3.56" departed="0" arrived="0" entered="212" left="198" laneChangedFrom="8" laneChangedTo="8"/>
        <edge id="start" sampledSeconds="5151.63" traveltime="22.76" density="143.10" occupancy="35.78" waitingTime="2120.00" speed="4.39" departed="236" arrived="0" entered="0" left="212" laneChangedFrom="9" laneChangedTo="9"/>
    </interval>
    <interval begin="360.00" end="720.00" id="expect_300_vehs">
        <edge id="bottleneck" sampledSeconds="894.83" traveltime="4.20" density="25.24" occupancy="12.62" waitingTime="0.00" speed="23.44" departed="0" arrived="0" entered="203" left="203" laneChangedFrom="0" laneChangedTo="0"/>
        <edge id="end" sampledSeconds="644.54" traveltime="3.04" density="17.90" occupancy="8.95" waitingTime="0.00" speed="32.86" departed="0" arrived="202" entered="203" left="0" laneChangedFrom="0" laneChangedTo="0"/>
        <edge id="jam" sampledSeconds="3519.63" traveltime="16.69" density="99.26" occupancy="24.81" waitingTime="845.00" speed="5.90" departed="0" arrived="0" entered="198" left="203" laneChangedFrom="118" laneChangedTo="118"/>
        <edge id="middle" sampledSeconds="6953.00" traveltime="32.84" density="193.14" occupancy="48.28" waitingTime="3062.00" speed="3.04" departed="0" arrived="0" entered="207" left="198" laneChangedFrom="11" laneChangedTo="11"/>
        <edge id="start" sampledSeconds="6758.62" traveltime="32.02" density="187.74" occupancy="46.93" waitingTime="2871.00" speed="3.12" departed="203" arrived="0" entered="0" left="207" laneChangedFrom="17" laneChangedTo="17"/>
    </interval>
    <interval begin="720.00" end="1080.00" id="expect_300_vehs">
        <edge id="bottleneck" sampledSeconds="864.39" traveltime="4.11" density="24.38" occupancy="12.19" waitingTime="0.00" speed="23.96" departed="0" arrived="0" entered="200" left="200" laneChangedFrom="0" laneChangedTo="0"/>
        <edge id="end" sampledSeconds="636.04" traveltime="3.02" density="17.67" occupancy="8.83" waitingTime="0.00" speed="33.12" departed="0" arrived="201" entered="200" left="0" laneChangedFrom="0" laneChangedTo="0"/>
        <edge id="jam" sampledSeconds="3511.31" traveltime="16.69" density="99.02" occupancy="24.76" waitingTime="772.00" speed="5.90" departed="0" arrived="0" entered="202" left="200" laneChangedFrom="128" laneChangedTo="128"/>
        <edge id="middle" sampledSeconds="7148.93" traveltime="34.24" density="198.58" occupancy="49.65" waitingTime="2914.00" speed="2.92" departed="0" arrived="0" entered="196" left="202" laneChangedFrom="3" laneChangedTo="3"/>
        <edge id="start" sampledSeconds="6796.62" traveltime="34.68" density="188.80" occupancy="47.20" waitingTime="3023.00" speed="2.88" departed="201" arrived="0" entered="0" left="196" laneChangedFrom="11" laneChangedTo="11"/>
    </interval>
    <interval begin="1080.00" end="1440.00" id="expect_300_vehs">
        <edge id="bottleneck" sampledSeconds="857.46" traveltime="4.18" density="24.18" occupancy="12.09" waitingTime="0.00" speed="23.58" departed="0" arrived="0" entered="195" left="195" laneChangedFrom="0" laneChangedTo="0"/>
        <edge id="end" sampledSeconds="620.95" traveltime="3.04" density="17.25" occupancy="8.62" waitingTime="0.00" speed="32.93" departed="0" arrived="196" entered="195" left="0" laneChangedFrom="0" laneChangedTo="0"/>
        <edge id="jam" sampledSeconds="3736.83" traveltime="18.06" density="105.38" occupancy="26.35" waitingTime="844.00" speed="5.45" departed="0" arrived="0" entered="201" left="196" laneChangedFrom="127" laneChangedTo="127"/>
        <edge id="middle" sampledSeconds="7090.90" traveltime="33.19" density="196.97" occupancy="49.24" waitingTime="2951.97" speed="3.01" departed="0" arrived="0" entered="203" left="201" laneChangedFrom="5" laneChangedTo="5"/>
        <edge id="start" sampledSeconds="7024.13" traveltime="34.78" density="195.11" occupancy="48.78" waitingTime="3015.00" speed="2.88" departed="189" arrived="0" entered="0" left="203" laneChangedFrom="10" laneChangedTo="10"/>
    </interval>
</meandata>
