<?xml version="1.0" encoding="UTF-8"?>

<!-- generated on Mon Sep 12 10:56:35 2016 by SUMO Version dev-SVN-r21424
<?xml version="1.0" encoding="UTF-8"?>

<configuration xmlns:xsi="http://www.w3.org/2001/XMLSchema-instance" xsi:noNamespaceSchemaLocation="http://sumo.dlr.de/xsd/sumoConfiguration.xsd">

    <input>
        <net-file value="net.net.xml"/>
        <route-files value="input_routes.rou.xml"/>
        <additional-files value="input_additional.add.xml"/>
    </input>

    <output>
        <vehroute-output value="vehroutes.xml"/>
    </output>

    <time>
        <end value="1440"/>
    </time>

    <processing>
        <step-method.ballistic value="true"/>
    </processing>

    <report>
        <xml-validation value="never"/>
        <duration-log.disable value="true"/>
        <no-step-log value="true"/>
    </report>

</configuration>
-->

<routes xmlns:xsi="http://www.w3.org/2001/XMLSchema-instance" xsi:noNamespaceSchemaLocation="http://sumo.dlr.de/xsd/routes_file.xsd">
    <vehicle id="high.0" depart="0.00" arrival="14.00">
        <route edges="start middle jam bottleneck end"/>
    </vehicle>

    <vehicle id="high.1" depart="1.00" arrival="16.00">
        <route edges="start middle jam bottleneck end"/>
    </vehicle>

    <vehicle id="high.2" depart="2.00" arrival="17.00">
        <route edges="start middle jam bottleneck end"/>
    </vehicle>

    <vehicle id="high.3" depart="3.00" arrival="18.00">
        <route edges="start middle jam bottleneck end"/>
    </vehicle>

    <vehicle id="high.4" depart="5.00" arrival="19.00">
        <route edges="start middle jam bottleneck end"/>
    </vehicle>

    <vehicle id="high.5" depart="6.00" arrival="21.00">
        <route edges="start middle jam bottleneck end"/>
    </vehicle>

    <vehicle id="high.6" depart="7.00" arrival="22.00">
        <route edges="start middle jam bottleneck end"/>
    </vehicle>

    <vehicle id="high.7" depart="8.00" arrival="23.00">
        <route edges="start middle jam bottleneck end"/>
    </vehicle>

    <vehicle id="high.8" depart="9.00" arrival="24.00">
        <route edges="start middle jam bottleneck end"/>
    </vehicle>

    <vehicle id="high.9" depart="10.00" arrival="25.00">
        <route edges="start middle jam bottleneck end"/>
    </vehicle>

    <vehicle id="high.10" depart="12.00" arrival="27.00">
        <route edges="start middle jam bottleneck end"/>
    </vehicle>

    <vehicle id="high.12" depart="14.00" arrival="28.00">
        <route edges="start middle jam bottleneck end"/>
    </vehicle>

    <vehicle id="high.11" depart="14.00" arrival="29.00">
        <route edges="start middle jam bottleneck end"/>
    </vehicle>

    <vehicle id="high.13" depart="16.00" arrival="31.00">
        <route edges="start middle jam bottleneck end"/>
    </vehicle>

    <vehicle id="high.14" depart="16.00" arrival="32.00">
        <route edges="start middle jam bottleneck end"/>
    </vehicle>

    <vehicle id="high.15" depart="18.00" arrival="33.00">
        <route edges="start middle jam bottleneck end"/>
    </vehicle>

    <vehicle id="high.16" depart="19.00" arrival="34.00">
        <route edges="start middle jam bottleneck end"/>
    </vehicle>

    <vehicle id="high.17" depart="20.00" arrival="35.00">
        <route edges="start middle jam bottleneck end"/>
    </vehicle>

    <vehicle id="high.18" depart="21.00" arrival="37.00">
        <route edges="start middle jam bottleneck end"/>
    </vehicle>

    <vehicle id="high.19" depart="23.00" arrival="38.00">
        <route edges="start middle jam bottleneck end"/>
    </vehicle>

    <vehicle id="high.21" depart="25.00" arrival="40.00">
        <route edges="start middle jam bottleneck end"/>
    </vehicle>

    <vehicle id="high.20" depart="25.00" arrival="41.00">
        <route edges="start middle jam bottleneck end"/>
    </vehicle>

    <vehicle id="high.22" depart="27.00" arrival="42.00">
        <route edges="start middle jam bottleneck end"/>
    </vehicle>

    <vehicle id="high.23" depart="29.00" arrival="43.00">
        <route edges="start middle jam bottleneck end"/>
    </vehicle>

    <vehicle id="high.24" depart="31.00" arrival="45.00">
        <route edges="start middle jam bottleneck end"/>
    </vehicle>

    <vehicle id="high.25" depart="32.00" arrival="47.00">
        <route edges="start middle jam bottleneck end"/>
    </vehicle>

    <vehicle id="high.26" depart="33.00" arrival="48.00">
        <route edges="start middle jam bottleneck end"/>
    </vehicle>

    <vehicle id="high.27" depart="34.00" arrival="49.00">
        <route edges="start middle jam bottleneck end"/>
    </vehicle>

    <vehicle id="high.28" depart="35.00" arrival="50.00">
        <route edges="start middle jam bottleneck end"/>
    </vehicle>

    <vehicle id="high.30" depart="37.00" arrival="52.00">
        <route edges="start middle jam bottleneck end"/>
    </vehicle>

    <vehicle id="high.29" depart="37.00" arrival="53.00">
        <route edges="start middle jam bottleneck end"/>
    </vehicle>

    <vehicle id="high.31" depart="38.00" arrival="54.00">
        <route edges="start middle jam bottleneck end"/>
    </vehicle>

    <vehicle id="high.33" depart="39.00" arrival="55.00">
        <route edges="start middle jam bottleneck end"/>
    </vehicle>

    <vehicle id="high.32" depart="39.00" arrival="56.00">
        <route edges="start middle jam bottleneck end"/>
    </vehicle>

    <vehicle id="high.34" depart="40.00" arrival="57.00">
        <route edges="start middle jam bottleneck end"/>
    </vehicle>

    <vehicle id="high.35" depart="42.00" arrival="58.00">
        <route edges="start middle jam bottleneck end"/>
    </vehicle>

    <vehicle id="high.36" depart="43.00" arrival="60.00">
        <route edges="start middle jam bottleneck end"/>
    </vehicle>

    <vehicle id="high.37" depart="44.00" arrival="61.00">
        <route edges="start middle jam bottleneck end"/>
    </vehicle>

    <vehicle id="high.38" depart="46.00" arrival="62.00">
        <route edges="start middle jam bottleneck end"/>
    </vehicle>

    <vehicle id="high.40" depart="48.00" arrival="64.00">
        <route edges="start middle jam bottleneck end"/>
    </vehicle>

    <vehicle id="high.39" depart="48.00" arrival="65.00">
        <route edges="start middle jam bottleneck end"/>
    </vehicle>

    <vehicle id="high.41" depart="50.00" arrival="67.00">
        <route edges="start middle jam bottleneck end"/>
    </vehicle>

    <vehicle id="high.42" depart="51.00" arrival="68.00">
        <route edges="start middle jam bottleneck end"/>
    </vehicle>

    <vehicle id="high.43" depart="53.00" arrival="70.00">
        <route edges="start middle jam bottleneck end"/>
    </vehicle>

    <vehicle id="high.44" depart="54.00" arrival="71.00">
        <route edges="start middle jam bottleneck end"/>
    </vehicle>

    <vehicle id="high.45" depart="55.00" arrival="72.00">
        <route edges="start middle jam bottleneck end"/>
    </vehicle>

    <vehicle id="high.46" depart="57.00" arrival="73.00">
        <route edges="start middle jam bottleneck end"/>
    </vehicle>

    <vehicle id="high.47" depart="58.00" arrival="75.00">
        <route edges="start middle jam bottleneck end"/>
    </vehicle>

    <vehicle id="high.48" depart="59.00" arrival="77.00">
        <route edges="start middle jam bottleneck end"/>
    </vehicle>

    <vehicle id="high.49" depart="60.00" arrival="78.00">
        <route edges="start middle jam bottleneck end"/>
    </vehicle>

    <vehicle id="high.50" depart="62.00" arrival="79.00">
        <route edges="start middle jam bottleneck end"/>
    </vehicle>

    <vehicle id="high.51" depart="63.00" arrival="81.00">
        <route edges="start middle jam bottleneck end"/>
    </vehicle>

    <vehicle id="high.52" depart="65.00" arrival="82.00">
        <route edges="start middle jam bottleneck end"/>
    </vehicle>

    <vehicle id="high.53" depart="66.00" arrival="84.00">
        <route edges="start middle jam bottleneck end"/>
    </vehicle>

    <vehicle id="high.54" depart="68.00" arrival="85.00">
        <route edges="start middle jam bottleneck end"/>
    </vehicle>

    <vehicle id="high.55" depart="70.00" arrival="86.00">
        <route edges="start middle jam bottleneck end"/>
    </vehicle>

    <vehicle id="high.56" depart="71.00" arrival="89.00">
        <route edges="start middle jam bottleneck end"/>
    </vehicle>

    <vehicle id="high.57" depart="73.00" arrival="90.00">
        <route edges="start middle jam bottleneck end"/>
    </vehicle>

    <vehicle id="high.58" depart="75.00" arrival="91.00">
        <route edges="start middle jam bottleneck end"/>
    </vehicle>

    <vehicle id="high.59" depart="76.00" arrival="94.00">
        <route edges="start middle jam bottleneck end"/>
    </vehicle>

    <vehicle id="high.60" depart="78.00" arrival="95.00">
        <route edges="start middle jam bottleneck end"/>
    </vehicle>

    <vehicle id="high.61" depart="79.00" arrival="97.00">
        <route edges="start middle jam bottleneck end"/>
    </vehicle>

    <vehicle id="high.62" depart="80.00" arrival="98.00">
        <route edges="start middle jam bottleneck end"/>
    </vehicle>

    <vehicle id="high.63" depart="81.00" arrival="99.00">
        <route edges="start middle jam bottleneck end"/>
    </vehicle>

    <vehicle id="high.64" depart="82.00" arrival="101.00">
        <route edges="start middle jam bottleneck end"/>
    </vehicle>

    <vehicle id="high.65" depart="84.00" arrival="102.00">
        <route edges="start middle jam bottleneck end"/>
    </vehicle>

    <vehicle id="high.66" depart="85.00" arrival="103.00">
        <route edges="start middle jam bottleneck end"/>
    </vehicle>

    <vehicle id="high.68" depart="86.00" arrival="109.00">
        <route edges="start middle jam bottleneck end"/>
    </vehicle>

    <vehicle id="high.67" depart="86.00" arrival="110.00">
        <route edges="start middle jam bottleneck end"/>
    </vehicle>

    <vehicle id="high.69" depart="87.00" arrival="113.00">
        <route edges="start middle jam bottleneck end"/>
    </vehicle>

    <vehicle id="high.71" depart="89.00" arrival="117.00">
        <route edges="start middle jam bottleneck end"/>
    </vehicle>

    <vehicle id="high.70" depart="88.00" arrival="119.00">
        <route edges="start middle jam bottleneck end"/>
    </vehicle>

    <vehicle id="high.73" depart="90.00" arrival="121.00">
        <route edges="start middle jam bottleneck end"/>
    </vehicle>

    <vehicle id="high.72" depart="90.00" arrival="124.00">
        <route edges="start middle jam bottleneck end"/>
    </vehicle>

    <vehicle id="high.74" depart="91.00" arrival="125.00">
        <route edges="start middle jam bottleneck end"/>
    </vehicle>

    <vehicle id="high.75" depart="92.00" arrival="128.00">
        <route edges="start middle jam bottleneck end"/>
    </vehicle>

    <vehicle id="high.76" depart="92.00" arrival="129.00">
        <route edges="start middle jam bottleneck end"/>
    </vehicle>

    <vehicle id="high.80" depart="96.00" arrival="134.00">
        <route edges="start middle jam bottleneck end"/>
    </vehicle>

    <vehicle id="high.78" depart="94.00" arrival="136.00">
        <route edges="start middle jam bottleneck end"/>
    </vehicle>

    <vehicle id="high.77" depart="94.00" arrival="139.00">
        <route edges="start middle jam bottleneck end"/>
    </vehicle>

    <vehicle id="high.82" depart="98.00" arrival="140.00">
        <route edges="start middle jam bottleneck end"/>
    </vehicle>

    <vehicle id="high.79" depart="95.00" arrival="141.00">
        <route edges="start middle jam bottleneck end"/>
    </vehicle>

    <vehicle id="high.84" depart="100.00" arrival="143.00">
        <route edges="start middle jam bottleneck end"/>
    </vehicle>

    <vehicle id="high.85" depart="102.00" arrival="145.00">
        <route edges="start middle jam bottleneck end"/>
    </vehicle>

    <vehicle id="high.81" depart="97.00" arrival="148.00">
        <route edges="start middle jam bottleneck end"/>
    </vehicle>

    <vehicle id="high.83" depart="100.00" arrival="149.00">
        <route edges="start middle jam bottleneck end"/>
    </vehicle>

    <vehicle id="high.87" depart="104.00" arrival="152.00">
        <route edges="start middle jam bottleneck end"/>
    </vehicle>

    <vehicle id="high.90" depart="108.00" arrival="153.00">
        <route edges="start middle jam bottleneck end"/>
    </vehicle>

    <vehicle id="high.86" depart="104.00" arrival="157.00">
        <route edges="start middle jam bottleneck end"/>
    </vehicle>

    <vehicle id="high.93" depart="111.00" arrival="159.00">
        <route edges="start middle jam bottleneck end"/>
    </vehicle>

    <vehicle id="high.95" depart="114.00" arrival="161.00">
        <route edges="start middle jam bottleneck end"/>
    </vehicle>

    <vehicle id="high.96" depart="116.00" arrival="163.00">
        <route edges="start middle jam bottleneck end"/>
    </vehicle>

    <vehicle id="high.98" depart="118.00" arrival="165.00">
        <route edges="start middle jam bottleneck end"/>
    </vehicle>

    <vehicle id="high.100" depart="120.00" arrival="166.00">
        <route edges="start middle jam bottleneck end"/>
    </vehicle>

    <vehicle id="high.101" depart="121.00" arrival="167.00">
        <route edges="start middle jam bottleneck end"/>
    </vehicle>

    <vehicle id="high.103" depart="123.00" arrival="168.00">
        <route edges="start middle jam bottleneck end"/>
    </vehicle>

    <vehicle id="high.104" depart="124.00" arrival="169.00">
        <route edges="start middle jam bottleneck end"/>
    </vehicle>

    <vehicle id="high.106" depart="127.00" arrival="171.00">
        <route edges="start middle jam bottleneck end"/>
    </vehicle>

    <vehicle id="high.88" depart="106.00" arrival="178.00">
        <route edges="start middle jam bottleneck end"/>
    </vehicle>

    <vehicle id="high.89" depart="108.00" arrival="179.00">
        <route edges="start middle jam bottleneck end"/>
    </vehicle>

    <vehicle id="high.91" depart="110.00" arrival="180.00">
        <route edges="start middle jam bottleneck end"/>
    </vehicle>

    <vehicle id="high.110" depart="132.00" arrival="181.00">
        <route edges="start middle jam bottleneck end"/>
    </vehicle>

    <vehicle id="high.92" depart="111.00" arrival="183.00">
        <route edges="start middle jam bottleneck end"/>
    </vehicle>

    <vehicle id="high.116" depart="139.00" arrival="184.00">
        <route edges="start middle jam bottleneck end"/>
    </vehicle>

    <vehicle id="high.118" depart="141.00" arrival="185.00">
        <route edges="start middle jam bottleneck end"/>
    </vehicle>

    <vehicle id="high.94" depart="112.00" arrival="187.00">
        <route edges="start middle jam bottleneck end"/>
    </vehicle>

    <vehicle id="high.119" depart="142.00" arrival="189.00">
        <route edges="start middle jam bottleneck end"/>
    </vehicle>

    <vehicle id="high.97" depart="116.00" arrival="191.00">
        <route edges="start middle jam bottleneck end"/>
    </vehicle>

    <vehicle id="high.122" depart="146.00" arrival="193.00">
        <route edges="start middle jam bottleneck end"/>
    </vehicle>

    <vehicle id="high.126" depart="151.00" arrival="195.00">
        <route edges="start middle jam bottleneck end"/>
    </vehicle>

    <vehicle id="high.99" depart="118.00" arrival="198.00">
        <route edges="start middle jam bottleneck end"/>
    </vehicle>

    <vehicle id="high.102" depart="122.00" arrival="202.00">
        <route edges="start middle jam bottleneck end"/>
    </vehicle>

    <vehicle id="high.130" depart="156.00" arrival="206.00">
        <route edges="start middle jam bottleneck end"/>
    </vehicle>

    <vehicle id="high.127" depart="152.00" arrival="208.00">
        <route edges="start middle jam bottleneck end"/>
    </vehicle>

    <vehicle id="high.105" depart="126.00" arrival="210.00">
        <route edges="start middle jam bottleneck end"/>
    </vehicle>

    <vehicle id="high.135" depart="162.00" arrival="212.00">
        <route edges="start middle jam bottleneck end"/>
    </vehicle>

    <vehicle id="high.107" depart="128.00" arrival="213.00">
        <route edges="start middle jam bottleneck end"/>
    </vehicle>

    <vehicle id="high.133" depart="159.00" arrival="216.00">
        <route edges="start middle jam bottleneck end"/>
    </vehicle>

    <vehicle id="high.108" depart="129.00" arrival="217.00">
        <route edges="start middle jam bottleneck end"/>
    </vehicle>

    <vehicle id="high.134" depart="161.00" arrival="220.00">
        <route edges="start middle jam bottleneck end"/>
    </vehicle>

    <vehicle id="high.136" depart="163.00" arrival="221.00">
        <route edges="start middle jam bottleneck end"/>
    </vehicle>

    <vehicle id="high.109" depart="130.00" arrival="224.00">
        <route edges="start middle jam bottleneck end"/>
    </vehicle>

    <vehicle id="high.143" depart="179.00" arrival="226.00">
        <route edges="start middle jam bottleneck end"/>
    </vehicle>

    <vehicle id="high.137" depart="165.00" arrival="228.00">
        <route edges="start middle jam bottleneck end"/>
    </vehicle>

    <vehicle id="high.111" depart="133.00" arrival="230.00">
        <route edges="start middle jam bottleneck end"/>
    </vehicle>

    <vehicle id="high.112" depart="134.00" arrival="231.00">
        <route edges="start middle jam bottleneck end"/>
    </vehicle>

    <vehicle id="high.132" depart="159.00" arrival="233.00">
        <route edges="start middle jam bottleneck end"/>
    </vehicle>

    <vehicle id="high.139" depart="170.00" arrival="235.00">
        <route edges="start middle jam bottleneck end"/>
    </vehicle>

    <vehicle id="high.138" depart="167.00" arrival="237.00">
        <route edges="start middle jam bottleneck end"/>
    </vehicle>

    <vehicle id="high.141" depart="174.00" arrival="239.00">
        <route edges="start middle jam bottleneck end"/>
    </vehicle>

    <vehicle id="high.140" depart="173.00" arrival="241.00">
        <route edges="start middle jam bottleneck end"/>
    </vehicle>

    <vehicle id="high.144" depart="184.00" arrival="242.00">
        <route edges="start middle jam bottleneck end"/>
    </vehicle>

    <vehicle id="high.146" depart="187.00" arrival="243.00">
        <route edges="start middle jam bottleneck end"/>
    </vehicle>

    <vehicle id="high.145" depart="185.00" arrival="244.00">
        <route edges="start middle jam bottleneck end"/>
    </vehicle>

    <vehicle id="high.148" depart="192.00" arrival="246.00">
        <route edges="start middle jam bottleneck end"/>
    </vehicle>

    <vehicle id="high.149" depart="194.00" arrival="247.00">
        <route edges="start middle jam bottleneck end"/>
    </vehicle>

    <vehicle id="high.152" depart="197.00" arrival="248.00">
        <route edges="start middle jam bottleneck end"/>
    </vehicle>

    <vehicle id="high.153" depart="199.00" arrival="250.00">
        <route edges="start middle jam bottleneck end"/>
    </vehicle>

    <vehicle id="high.154" depart="200.00" arrival="251.00">
        <route edges="start middle jam bottleneck end"/>
    </vehicle>

    <vehicle id="high.155" depart="201.00" arrival="252.00">
        <route edges="start middle jam bottleneck end"/>
    </vehicle>

    <vehicle id="high.157" depart="202.00" arrival="254.00">
        <route edges="start middle jam bottleneck end"/>
    </vehicle>

    <vehicle id="high.160" depart="204.00" arrival="255.00">
        <route edges="start middle jam bottleneck end"/>
    </vehicle>

    <vehicle id="high.113" depart="135.00" arrival="263.00">
        <route edges="start middle jam bottleneck end"/>
    </vehicle>

    <vehicle id="high.114" depart="136.00" arrival="266.00">
        <route edges="start middle jam bottleneck end"/>
    </vehicle>

    <vehicle id="high.161" depart="206.00" arrival="270.00">
        <route edges="start middle jam bottleneck end"/>
    </vehicle>

    <vehicle id="high.163" depart="208.00" arrival="271.00">
        <route edges="start middle jam bottleneck end"/>
    </vehicle>

    <vehicle id="high.115" depart="138.00" arrival="274.00">
        <route edges="start middle jam bottleneck end"/>
    </vehicle>

    <vehicle id="high.164" depart="209.00" arrival="276.00">
        <route edges="start middle jam bottleneck end"/>
    </vehicle>

    <vehicle id="high.117" depart="140.00" arrival="279.00">
        <route edges="start middle jam bottleneck end"/>
    </vehicle>

    <vehicle id="high.168" depart="213.00" arrival="283.00">
        <route edges="start middle jam bottleneck end"/>
    </vehicle>

    <vehicle id="high.166" depart="211.00" arrival="285.00">
        <route edges="start middle jam bottleneck end"/>
    </vehicle>

    <vehicle id="high.121" depart="145.00" arrival="287.00">
        <route edges="start middle jam bottleneck end"/>
    </vehicle>

    <vehicle id="high.172" depart="218.00" arrival="289.00">
        <route edges="start middle jam bottleneck end"/>
    </vehicle>

    <vehicle id="high.171" depart="217.00" arrival="292.00">
        <route edges="start middle jam bottleneck end"/>
    </vehicle>

    <vehicle id="high.120" depart="144.00" arrival="295.00">
        <route edges="start middle jam bottleneck end"/>
    </vehicle>

    <vehicle id="high.123" depart="147.00" arrival="296.00">
        <route edges="start middle jam bottleneck end"/>
    </vehicle>

    <vehicle id="high.174" depart="219.00" arrival="298.00">
        <route edges="start middle jam bottleneck end"/>
    </vehicle>

    <vehicle id="high.175" depart="221.00" arrival="300.00">
        <route edges="start middle jam bottleneck end"/>
    </vehicle>

    <vehicle id="high.124" depart="148.00" arrival="303.00">
        <route edges="start middle jam bottleneck end"/>
    </vehicle>

    <vehicle id="high.177" depart="223.00" arrival="305.00">
        <route edges="start middle jam bottleneck end"/>
    </vehicle>

    <vehicle id="high.125" depart="150.00" arrival="308.00">
        <route edges="start middle jam bottleneck end"/>
    </vehicle>

    <vehicle id="high.178" depart="225.00" arrival="310.00">
        <route edges="start middle jam bottleneck end"/>
    </vehicle>

    <vehicle id="high.128" depart="153.00" arrival="314.00">
        <route edges="start middle jam bottleneck end"/>
    </vehicle>

    <vehicle id="high.129" depart="155.00" arrival="315.00">
        <route edges="start middle jam bottleneck end"/>
    </vehicle>

    <vehicle id="high.181" depart="244.00" arrival="317.00">
        <route edges="start middle jam bottleneck end"/>
    </vehicle>

    <vehicle id="high.183" depart="255.00" arrival="319.00">
        <route edges="start middle jam bottleneck end"/>
    </vehicle>

    <vehicle id="high.184" depart="258.00" arrival="321.00">
        <route edges="start middle jam bottleneck end"/>
    </vehicle>

    <vehicle id="high.186" depart="261.00" arrival="322.00">
        <route edges="start middle jam bottleneck end"/>
    </vehicle>

    <vehicle id="high.187" depart="262.00" arrival="324.00">
        <route edges="start middle jam bottleneck end"/>
    </vehicle>

    <vehicle id="high.188" depart="263.00" arrival="325.00">
        <route edges="start middle jam bottleneck end"/>
    </vehicle>

    <vehicle id="high.189" depart="265.00" arrival="326.00">
        <route edges="start middle jam bottleneck end"/>
    </vehicle>

    <vehicle id="high.190" depart="267.00" arrival="327.00">
        <route edges="start middle jam bottleneck end"/>
    </vehicle>

    <vehicle id="high.191" depart="268.00" arrival="329.00">
        <route edges="start middle jam bottleneck end"/>
    </vehicle>

    <vehicle id="high.195" depart="274.00" arrival="330.00">
        <route edges="start middle jam bottleneck end"/>
    </vehicle>

    <vehicle id="high.176" depart="223.00" arrival="332.00">
        <route edges="start middle jam bottleneck end"/>
    </vehicle>

    <vehicle id="high.199" depart="278.00" arrival="333.00">
        <route edges="start middle jam bottleneck end"/>
    </vehicle>

    <vehicle id="high.203" depart="283.00" arrival="334.00">
        <route edges="start middle jam bottleneck end"/>
    </vehicle>

    <vehicle id="high.205" depart="286.00" arrival="336.00">
        <route edges="start middle jam bottleneck end"/>
    </vehicle>

    <vehicle id="high.194" depart="273.00" arrival="337.00">
        <route edges="start middle jam bottleneck end"/>
    </vehicle>

    <vehicle id="high.198" depart="278.00" arrival="339.00">
        <route edges="start middle jam bottleneck end"/>
    </vehicle>

    <vehicle id="high.200" depart="279.00" arrival="340.00">
        <route edges="start middle jam bottleneck end"/>
    </vehicle>

    <vehicle id="high.221" depart="323.00" arrival="342.00">
        <route edges="start middle jam bottleneck end"/>
    </vehicle>

    <vehicle id="high.223" depart="327.00" arrival="343.00">
        <route edges="start middle jam bottleneck end"/>
    </vehicle>

    <vehicle id="high.224" depart="330.00" arrival="345.00">
        <route edges="start middle jam bottleneck end"/>
    </vehicle>

    <vehicle id="high.226" depart="331.00" arrival="346.00">
        <route edges="start middle jam bottleneck end"/>
    </vehicle>

    <vehicle id="high.227" depart="332.00" arrival="347.00">
        <route edges="start middle jam bottleneck end"/>
    </vehicle>

    <vehicle id="high.228" depart="334.00" arrival="349.00">
        <route edges="start middle jam bottleneck end"/>
    </vehicle>

    <vehicle id="high.229" depart="335.00" arrival="351.00">
        <route edges="start middle jam bottleneck end"/>
    </vehicle>

    <vehicle id="high.230" depart="337.00" arrival="353.00">
        <route edges="start middle jam bottleneck end"/>
    </vehicle>

    <vehicle id="high.232" depart="340.00" arrival="355.00">
        <route edges="start middle jam bottleneck end"/>
    </vehicle>

    <vehicle id="high.233" depart="341.00" arrival="357.00">
        <route edges="start middle jam bottleneck end"/>
    </vehicle>

    <vehicle id="high.234" depart="342.00" arrival="358.00">
        <route edges="start middle jam bottleneck end"/>
    </vehicle>

    <vehicle id="high.235" depart="343.00" arrival="360.00">
        <route edges="start middle jam bottleneck end"/>
    </vehicle>

    <vehicle id="high.180" depart="229.00" arrival="365.00">
        <route edges="start middle jam bottleneck end"/>
    </vehicle>

    <vehicle id="high.131" depart="157.00" arrival="372.00">
        <route edges="start middle jam bottleneck end"/>
    </vehicle>

    <vehicle id="high.208" depart="291.00" arrival="376.00">
        <route edges="start middle jam bottleneck end"/>
    </vehicle>

    <vehicle id="high.202" depart="282.00" arrival="379.00">
        <route edges="start middle jam bottleneck end"/>
    </vehicle>

    <vehicle id="high.236" depart="350.00" arrival="380.00">
        <route edges="start middle jam bottleneck end"/>
    </vehicle>

    <vehicle id="high.206" depart="287.00" arrival="383.00">
        <route edges="start middle jam bottleneck end"/>
    </vehicle>

    <vehicle id="high.238" depart="354.00" arrival="384.00">
        <route edges="start middle jam bottleneck end"/>
    </vehicle>

    <vehicle id="high.210" depart="292.00" arrival="387.00">
        <route edges="start middle jam bottleneck end"/>
    </vehicle>

    <vehicle id="high.211" depart="294.00" arrival="389.00">
        <route edges="start middle jam bottleneck end"/>
    </vehicle>

    <vehicle id="high.215" depart="300.00" arrival="390.00">
        <route edges="start middle jam bottleneck end"/>
    </vehicle>

    <vehicle id="high.213" depart="300.00" arrival="395.00">
        <route edges="start middle jam bottleneck end"/>
    </vehicle>

    <vehicle id="high.216" depart="301.00" arrival="397.00">
        <route edges="start middle jam bottleneck end"/>
    </vehicle>

    <vehicle id="high.214" depart="300.00" arrival="400.00">
        <route edges="start middle jam bottleneck end"/>
    </vehicle>

    <vehicle id="high.218" depart="302.00" arrival="404.00">
        <route edges="start middle jam bottleneck end"/>
    </vehicle>

    <vehicle id="high.142" depart="177.00" arrival="405.00">
        <route edges="start middle jam bottleneck end"/>
    </vehicle>

    <vehicle id="high.219" depart="303.00" arrival="406.00">
        <route edges="start middle jam bottleneck end"/>
    </vehicle>

    <vehicle id="high.147" depart="191.00" arrival="408.00">
        <route edges="start middle jam bottleneck end"/>
    </vehicle>

    <vehicle id="high.222" depart="327.00" arrival="410.00">
        <route edges="start middle jam bottleneck end"/>
    </vehicle>

    <vehicle id="high.237" depart="354.00" arrival="411.00">
        <route edges="start middle jam bottleneck end"/>
    </vehicle>

    <vehicle id="high.150" depart="195.00" arrival="416.00">
        <route edges="start middle jam bottleneck end"/>
    </vehicle>

    <vehicle id="high.151" depart="197.00" arrival="417.00">
        <route edges="start middle jam bottleneck end"/>
    </vehicle>

    <vehicle id="high.240" depart="365.00" arrival="419.00">
        <route edges="start middle jam bottleneck end"/>
    </vehicle>

    <vehicle id="high.156" depart="201.00" arrival="420.00">
        <route edges="start middle jam bottleneck end"/>
    </vehicle>

    <vehicle id="high.241" depart="366.00" arrival="423.00">
        <route edges="start middle jam bottleneck end"/>
    </vehicle>

    <vehicle id="high.242" depart="368.00" arrival="425.00">
        <route edges="start middle jam bottleneck end"/>
    </vehicle>
