<?xml version="1.0" encoding="UTF-8"?>

<!-- generated on Tue Apr  5 13:46:11 2016 by SUMO Version dev-SVN-r20343
<?xml version="1.0" encoding="UTF-8"?>

<configuration xmlns:xsi="http://www.w3.org/2001/XMLSchema-instance" xsi:noNamespaceSchemaLocation="http://sumo.dlr.de/xsd/sumoConfiguration.xsd">

    <input>
        <net-file value="net.net.xml"/>
        <route-files value="input_routes.rou.xml"/>
        <additional-files value="input_additional.add.xml"/>
    </input>

    <output>
        <vehroute-output value="vehroutes.xml"/>
    </output>

    <time>
        <end value="1440"/>
    </time>

    <report>
        <xml-validation value="never"/>
        <duration-log.disable value="true"/>
        <no-step-log value="true"/>
    </report>

</configuration>
-->

<routes xmlns:xsi="http://www.w3.org/2001/XMLSchema-instance" xsi:noNamespaceSchemaLocation="http://sumo.dlr.de/xsd/routes_file.xsd">
    <vehicle id="high.0" depart="0.00" arrival="14.00">
        <route edges="start middle jam bottleneck end"/>
    </vehicle>

    <vehicle id="high.1" depart="1.00" arrival="16.00">
        <route edges="start middle jam bottleneck end"/>
    </vehicle>

    <vehicle id="high.2" depart="2.00" arrival="17.00">
        <route edges="start middle jam bottleneck end"/>
    </vehicle>

    <vehicle id="high.3" depart="3.00" arrival="18.00">
        <route edges="start middle jam bottleneck end"/>
    </vehicle>

    <vehicle id="high.4" depart="5.00" arrival="20.00">
        <route edges="start middle jam bottleneck end"/>
    </vehicle>

    <vehicle id="high.5" depart="6.00" arrival="21.00">
        <route edges="start middle jam bottleneck end"/>
    </vehicle>

    <vehicle id="high.6" depart="7.00" arrival="22.00">
        <route edges="start middle jam bottleneck end"/>
    </vehicle>

    <vehicle id="high.7" depart="8.00" arrival="23.00">
        <route edges="start middle jam bottleneck end"/>
    </vehicle>

    <vehicle id="high.8" depart="9.00" arrival="24.00">
        <route edges="start middle jam bottleneck end"/>
    </vehicle>

    <vehicle id="high.9" depart="10.00" arrival="26.00">
        <route edges="start middle jam bottleneck end"/>
    </vehicle>

    <vehicle id="high.10" depart="12.00" arrival="27.00">
        <route edges="start middle jam bottleneck end"/>
    </vehicle>

    <vehicle id="high.11" depart="13.00" arrival="28.00">
        <route edges="start middle jam bottleneck end"/>
    </vehicle>

    <vehicle id="high.12" depart="15.00" arrival="30.00">
        <route edges="start middle jam bottleneck end"/>
    </vehicle>

    <vehicle id="high.14" depart="16.00" arrival="31.00">
        <route edges="start middle jam bottleneck end"/>
    </vehicle>

    <vehicle id="high.13" depart="16.00" arrival="32.00">
        <route edges="start middle jam bottleneck end"/>
    </vehicle>

    <vehicle id="high.15" depart="18.00" arrival="34.00">
        <route edges="start middle jam bottleneck end"/>
    </vehicle>

    <vehicle id="high.16" depart="20.00" arrival="35.00">
        <route edges="start middle jam bottleneck end"/>
    </vehicle>

    <vehicle id="high.17" depart="20.00" arrival="36.00">
        <route edges="start middle jam bottleneck end"/>
    </vehicle>

    <vehicle id="high.19" depart="22.00" arrival="38.00">
        <route edges="start middle jam bottleneck end"/>
    </vehicle>

    <vehicle id="high.18" depart="22.00" arrival="39.00">
        <route edges="start middle jam bottleneck end"/>
    </vehicle>

    <vehicle id="high.20" depart="24.00" arrival="40.00">
        <route edges="start middle jam bottleneck end"/>
    </vehicle>

    <vehicle id="high.21" depart="25.00" arrival="41.00">
        <route edges="start middle jam bottleneck end"/>
    </vehicle>

    <vehicle id="high.22" depart="26.00" arrival="43.00">
        <route edges="start middle jam bottleneck end"/>
    </vehicle>

    <vehicle id="high.23" depart="27.00" arrival="44.00">
        <route edges="start middle jam bottleneck end"/>
    </vehicle>

    <vehicle id="high.24" depart="28.00" arrival="46.00">
        <route edges="start middle jam bottleneck end"/>
    </vehicle>

    <vehicle id="high.25" depart="30.00" arrival="47.00">
        <route edges="start middle jam bottleneck end"/>
    </vehicle>

    <vehicle id="high.26" depart="32.00" arrival="49.00">
        <route edges="start middle jam bottleneck end"/>
    </vehicle>

    <vehicle id="high.27" depart="32.00" arrival="50.00">
        <route edges="start middle jam bottleneck end"/>
    </vehicle>

    <vehicle id="high.28" depart="33.00" arrival="52.00">
        <route edges="start middle jam bottleneck end"/>
    </vehicle>

    <vehicle id="high.29" depart="34.00" arrival="53.00">
        <route edges="start middle jam bottleneck end"/>
    </vehicle>

    <vehicle id="high.30" depart="36.00" arrival="55.00">
        <route edges="start middle jam bottleneck end"/>
    </vehicle>

    <vehicle id="high.31" depart="37.00" arrival="56.00">
        <route edges="start middle jam bottleneck end"/>
    </vehicle>

    <vehicle id="high.32" depart="38.00" arrival="58.00">
        <route edges="start middle jam bottleneck end"/>
    </vehicle>

    <vehicle id="high.33" depart="39.00" arrival="59.00">
        <route edges="start middle jam bottleneck end"/>
    </vehicle>

    <vehicle id="high.34" depart="40.00" arrival="61.00">
        <route edges="start middle jam bottleneck end"/>
    </vehicle>

    <vehicle id="high.35" depart="42.00" arrival="63.00">
        <route edges="start middle jam bottleneck end"/>
    </vehicle>

    <vehicle id="high.40" depart="48.00" arrival="66.00">
        <route edges="start middle jam bottleneck end"/>
    </vehicle>

    <vehicle id="high.36" depart="43.00" arrival="67.00">
        <route edges="start middle jam bottleneck end"/>
    </vehicle>

    <vehicle id="high.37" depart="45.00" arrival="72.00">
        <route edges="start middle jam bottleneck end"/>
    </vehicle>

    <vehicle id="high.39" depart="46.00" arrival="77.00">
        <route edges="start middle jam bottleneck end"/>
    </vehicle>

    <vehicle id="high.42" depart="50.00" arrival="81.00">
        <route edges="start middle jam bottleneck end"/>
    </vehicle>

    <vehicle id="high.38" depart="46.00" arrival="82.00">
        <route edges="start middle jam bottleneck end"/>
    </vehicle>

    <vehicle id="high.45" depart="54.00" arrival="90.00">
        <route edges="start middle jam bottleneck end"/>
    </vehicle>

    <vehicle id="high.41" depart="49.00" arrival="95.00">
        <route edges="start middle jam bottleneck end"/>
    </vehicle>

    <vehicle id="high.43" depart="51.00" arrival="100.00">
        <route edges="start middle jam bottleneck end"/>
    </vehicle>

    <vehicle id="high.46" depart="56.00" arrival="105.00">
        <route edges="start middle jam bottleneck end"/>
    </vehicle>

    <vehicle id="high.44" depart="52.00" arrival="108.00">
        <route edges="start middle jam bottleneck end"/>
    </vehicle>

    <vehicle id="high.48" depart="57.00" arrival="109.00">
        <route edges="start middle jam bottleneck end"/>
    </vehicle>

    <vehicle id="high.49" depart="58.00" arrival="117.00">
        <route edges="start middle jam bottleneck end"/>
    </vehicle>

    <vehicle id="high.51" depart="61.00" arrival="122.00">
        <route edges="start middle jam bottleneck end"/>
    </vehicle>

    <vehicle id="high.47" depart="56.00" arrival="125.00">
        <route edges="start middle jam bottleneck end"/>
    </vehicle>

    <vehicle id="high.52" depart="62.00" arrival="126.00">
        <route edges="start middle jam bottleneck end"/>
    </vehicle>

    <vehicle id="high.53" depart="63.00" arrival="134.00">
        <route edges="start middle jam bottleneck end"/>
    </vehicle>

    <vehicle id="high.54" depart="64.00" arrival="139.00">
        <route edges="start middle jam bottleneck end"/>
    </vehicle>

    <vehicle id="high.56" depart="68.00" arrival="144.00">
        <route edges="start middle jam bottleneck end"/>
    </vehicle>

    <vehicle id="high.55" depart="66.00" arrival="148.00">
        <route edges="start middle jam bottleneck end"/>
    </vehicle>

    <vehicle id="high.68" depart="82.00" arrival="153.00">
        <route edges="start middle jam bottleneck end"/>
    </vehicle>

    <vehicle id="high.57" depart="68.00" arrival="158.00">
        <route edges="start middle jam bottleneck end"/>
    </vehicle>

    <vehicle id="high.59" depart="70.00" arrival="163.00">
        <route edges="start middle jam bottleneck end"/>
    </vehicle>

    <vehicle id="high.61" depart="73.00" arrival="168.00">
        <route edges="start middle jam bottleneck end"/>
    </vehicle>

    <vehicle id="high.60" depart="72.00" arrival="173.00">
        <route edges="start middle jam bottleneck end"/>
    </vehicle>

    <vehicle id="high.77" depart="93.00" arrival="178.00">
        <route edges="start middle jam bottleneck end"/>
    </vehicle>

    <vehicle id="high.62" depart="75.00" arrival="183.00">
        <route edges="start middle jam bottleneck end"/>
    </vehicle>

    <vehicle id="high.63" depart="75.00" arrival="188.00">
        <route edges="start middle jam bottleneck end"/>
    </vehicle>

    <vehicle id="high.58" depart="70.00" arrival="192.00">
        <route edges="start middle jam bottleneck end"/>
    </vehicle>

    <vehicle id="high.64" depart="76.00" arrival="197.00">
        <route edges="start middle jam bottleneck end"/>
    </vehicle>

    <vehicle id="high.65" depart="78.00" arrival="202.00">
        <route edges="start middle jam bottleneck end"/>
    </vehicle>

    <vehicle id="high.50" depart="60.00" arrival="205.00">
        <route edges="start middle jam bottleneck end"/>
    </vehicle>

    <vehicle id="high.67" depart="80.00" arrival="206.00">
        <route edges="start middle jam bottleneck end"/>
    </vehicle>

    <vehicle id="high.70" depart="84.00" arrival="210.00">
        <route edges="start middle jam bottleneck end"/>
    </vehicle>

    <vehicle id="high.66" depart="79.00" arrival="212.00">
        <route edges="start middle jam bottleneck end"/>
    </vehicle>

    <vehicle id="high.75" depart="90.00" arrival="215.00">
        <route edges="start middle jam bottleneck end"/>
    </vehicle>

    <vehicle id="high.93" depart="113.00" arrival="216.00">
        <route edges="start middle jam bottleneck end"/>
    </vehicle>

    <vehicle id="high.76" depart="92.00" arrival="221.00">
        <route edges="start middle jam bottleneck end"/>
    </vehicle>

    <vehicle id="high.89" depart="107.00" arrival="223.00">
        <route edges="start middle jam bottleneck end"/>
    </vehicle>

    <vehicle id="high.79" depart="94.00" arrival="226.00">
        <route edges="start middle jam bottleneck end"/>
    </vehicle>

    <vehicle id="high.86" depart="103.00" arrival="227.00">
        <route edges="start middle jam bottleneck end"/>
    </vehicle>

    <vehicle id="high.80" depart="96.00" arrival="231.00">
        <route edges="start middle jam bottleneck end"/>
    </vehicle>

    <vehicle id="high.103" depart="125.00" arrival="233.00">
        <route edges="start middle jam bottleneck end"/>
    </vehicle>

    <vehicle id="high.105" depart="127.00" arrival="236.00">
        <route edges="start middle jam bottleneck end"/>
    </vehicle>

    <vehicle id="high.100" depart="122.00" arrival="237.00">
        <route edges="start middle jam bottleneck end"/>
    </vehicle>

    <vehicle id="high.69" depart="83.00" arrival="239.00">
        <route edges="start middle jam bottleneck end"/>
    </vehicle>

    <vehicle id="high.71" depart="85.00" arrival="241.00">
        <route edges="start middle jam bottleneck end"/>
    </vehicle>

    <vehicle id="high.106" depart="129.00" arrival="245.00">
        <route edges="start middle jam bottleneck end"/>
    </vehicle>

    <vehicle id="high.108" depart="131.00" arrival="248.00">
        <route edges="start middle jam bottleneck end"/>
    </vehicle>

    <vehicle id="high.88" depart="107.00" arrival="251.00">
        <route edges="start middle jam bottleneck end"/>
    </vehicle>

    <vehicle id="high.72" depart="86.00" arrival="257.00">
        <route edges="start middle jam bottleneck end"/>
    </vehicle>

    <vehicle id="high.95" depart="115.00" arrival="264.00">
        <route edges="start middle jam bottleneck end"/>
    </vehicle>

    <vehicle id="high.73" depart="87.00" arrival="269.00">
        <route edges="start middle jam bottleneck end"/>
    </vehicle>

    <vehicle id="high.97" depart="117.00" arrival="274.00">
        <route edges="start middle jam bottleneck end"/>
    </vehicle>

    <vehicle id="high.74" depart="88.00" arrival="279.00">
        <route edges="start middle jam bottleneck end"/>
    </vehicle>

    <vehicle id="high.78" depart="93.00" arrival="284.00">
        <route edges="start middle jam bottleneck end"/>
    </vehicle>

    <vehicle id="high.81" depart="97.00" arrival="289.00">
        <route edges="start middle jam bottleneck end"/>
    </vehicle>

    <vehicle id="high.119" depart="156.00" arrival="294.00">
        <route edges="start middle jam bottleneck end"/>
    </vehicle>

    <vehicle id="high.109" depart="132.00" arrival="297.00">
        <route edges="start middle jam bottleneck end"/>
    </vehicle>

    <vehicle id="high.82" depart="98.00" arrival="298.00">
        <route edges="start middle jam bottleneck end"/>
    </vehicle>

    <vehicle id="high.110" depart="135.00" arrival="302.00">
        <route edges="start middle jam bottleneck end"/>
    </vehicle>

    <vehicle id="high.83" depart="99.00" arrival="305.00">
        <route edges="start middle jam bottleneck end"/>
    </vehicle>

    <vehicle id="high.112" depart="142.00" arrival="309.00">
        <route edges="start middle jam bottleneck end"/>
    </vehicle>

    <vehicle id="high.111" depart="140.00" arrival="313.00">
        <route edges="start middle jam bottleneck end"/>
    </vehicle>

    <vehicle id="high.84" depart="100.00" arrival="314.00">
        <route edges="start middle jam bottleneck end"/>
    </vehicle>

    <vehicle id="high.114" depart="148.00" arrival="318.00">
        <route edges="start middle jam bottleneck end"/>
    </vehicle>

    <vehicle id="high.85" depart="102.00" arrival="320.00">
        <route edges="start middle jam bottleneck end"/>
    </vehicle>

    <vehicle id="high.132" depart="228.00" arrival="323.00">
        <route edges="start middle jam bottleneck end"/>
    </vehicle>

    <vehicle id="high.87" depart="105.00" arrival="324.00">
        <route edges="start middle jam bottleneck end"/>
    </vehicle>

    <vehicle id="high.117" depart="154.00" arrival="327.00">
        <route edges="start middle jam bottleneck end"/>
    </vehicle>

    <vehicle id="high.90" depart="108.00" arrival="329.00">
        <route edges="start middle jam bottleneck end"/>
    </vehicle>

    <vehicle id="high.91" depart="109.00" arrival="333.00">
        <route edges="start middle jam bottleneck end"/>
    </vehicle>

    <vehicle id="high.121" depart="157.00" arrival="337.00">
        <route edges="start middle jam bottleneck end"/>
    </vehicle>

    <vehicle id="high.92" depart="111.00" arrival="342.00">
        <route edges="start middle jam bottleneck end"/>
    </vehicle>

    <vehicle id="high.94" depart="113.00" arrival="349.00">
        <route edges="start middle jam bottleneck end"/>
    </vehicle>

    <vehicle id="high.115" depart="151.00" arrival="354.00">
        <route edges="start middle jam bottleneck end"/>
    </vehicle>

    <vehicle id="high.96" depart="116.00" arrival="359.00">
        <route edges="start middle jam bottleneck end"/>
    </vehicle>

    <vehicle id="high.122" depart="160.00" arrival="364.00">
        <route edges="start middle jam bottleneck end"/>
    </vehicle>

    <vehicle id="high.123" depart="161.00" arrival="368.00">
        <route edges="start middle jam bottleneck end"/>
    </vehicle>

    <vehicle id="high.116" depart="152.00" arrival="373.00">
        <route edges="start middle jam bottleneck end"/>
    </vehicle>

    <vehicle id="high.98" depart="118.00" arrival="378.00">
        <route edges="start middle jam bottleneck end"/>
    </vehicle>

    <vehicle id="high.99" depart="120.00" arrival="383.00">
        <route edges="start middle jam bottleneck end"/>
    </vehicle>

    <vehicle id="high.136" depart="247.00" arrival="388.00">
        <route edges="start middle jam bottleneck end"/>
    </vehicle>

    <vehicle id="high.135" depart="246.00" arrival="393.00">
        <route edges="start middle jam bottleneck end"/>
    </vehicle>

    <vehicle id="high.133" depart="240.00" arrival="398.00">
        <route edges="start middle jam bottleneck end"/>
    </vehicle>

    <vehicle id="high.101" depart="122.00" arrival="403.00">
        <route edges="start middle jam bottleneck end"/>
    </vehicle>

    <vehicle id="high.118" depart="155.00" arrival="407.00">
        <route edges="start middle jam bottleneck end"/>
    </vehicle>

    <vehicle id="high.102" depart="124.00" arrival="408.00">
        <route edges="start middle jam bottleneck end"/>
    </vehicle>

    <vehicle id="high.124" depart="162.00" arrival="412.00">
        <route edges="start middle jam bottleneck end"/>
    </vehicle>

    <vehicle id="high.104" depart="126.00" arrival="414.00">
        <route edges="start middle jam bottleneck end"/>
    </vehicle>

    <vehicle id="high.125" depart="164.00" arrival="417.00">
        <route edges="start middle jam bottleneck end"/>
    </vehicle>

    <vehicle id="high.142" depart="252.00" arrival="418.00">
        <route edges="start middle jam bottleneck end"/>
    </vehicle>

    <vehicle id="high.126" depart="166.00" arrival="423.00">
        <route edges="start middle jam bottleneck end"/>
    </vehicle>

    <vehicle id="high.107" depart="130.00" arrival="425.00">
        <route edges="start middle jam bottleneck end"/>
    </vehicle>

    <vehicle id="high.128" depart="168.00" arrival="428.00">
        <route edges="start middle jam bottleneck end"/>
    </vehicle>

    <vehicle id="high.149" depart="262.00" arrival="429.00">
        <route edges="start middle jam bottleneck end"/>
    </vehicle>

    <vehicle id="high.129" depart="170.00" arrival="433.00">
        <route edges="start middle jam bottleneck end"/>
    </vehicle>

    <vehicle id="high.113" depart="143.00" arrival="435.00">
        <route edges="start middle jam bottleneck end"/>
    </vehicle>

    <vehicle id="high.137" depart="248.00" arrival="438.00">
        <route edges="start middle jam bottleneck end"/>
    </vehicle>

    <vehicle id="high.146" depart="260.00" arrival="439.00">
        <route edges="start middle jam bottleneck end"/>
    </vehicle>

    <vehicle id="high.150" depart="264.00" arrival="442.00">
        <route edges="start middle jam bottleneck end"/>
    </vehicle>

    <vehicle id="high.147" depart="261.00" arrival="446.00">
        <route edges="start middle jam bottleneck end"/>
    </vehicle>

    <vehicle id="high.120" depart="157.00" arrival="453.00">
        <route edges="start middle jam bottleneck end"/>
    </vehicle>

    <vehicle id="high.144" depart="254.00" arrival="458.00">
        <route edges="start middle jam bottleneck end"/>
    </vehicle>

    <vehicle id="high.143" depart="252.00" arrival="463.00">
        <route edges="start middle jam bottleneck end"/>
    </vehicle>

    <vehicle id="high.140" depart="250.00" arrival="467.00">
        <route edges="start middle jam bottleneck end"/>
    </vehicle>

    <vehicle id="high.152" depart="266.00" arrival="472.00">
        <route edges="start middle jam bottleneck end"/>
    </vehicle>

    <vehicle id="high.166" depart="302.00" arrival="479.00">
        <route edges="start middle jam bottleneck end"/>
    </vehicle>

    <vehicle id="high.145" depart="256.00" arrival="484.00">
        <route edges="start middle jam bottleneck end"/>
    </vehicle>

    <vehicle id="high.153" depart="269.00" arrival="489.00">
        <route edges="start middle jam bottleneck end"/>
    </vehicle>

    <vehicle id="high.127" depart="168.00" arrival="494.00">
        <route edges="start middle jam bottleneck end"/>
    </vehicle>

    <vehicle id="high.130" depart="177.00" arrival="499.00">
        <route edges="start middle jam bottleneck end"/>
    </vehicle>

    <vehicle id="high.154" depart="270.00" arrival="504.00">
        <route edges="start middle jam bottleneck end"/>
    </vehicle>

    <vehicle id="high.131" depart="206.00" arrival="509.00">
        <route edges="start middle jam bottleneck end"/>
    </vehicle>

    <vehicle id="high.163" depart="287.00" arrival="514.00">
        <route edges="start middle jam bottleneck end"/>
    </vehicle>

    <vehicle id="high.161" depart="281.00" arrival="519.00">
        <route edges="start middle jam bottleneck end"/>
    </vehicle>

    <vehicle id="high.138" depart="249.00" arrival="522.00">
        <route edges="start middle jam bottleneck end"/>
    </vehicle>

    <vehicle id="high.156" depart="271.00" arrival="523.00">
        <route edges="start middle jam bottleneck end"/>
    </vehicle>

    <vehicle id="high.134" depart="240.00" arrival="531.00">
        <route edges="start middle jam bottleneck end"/>
    </vehicle>

    <vehicle id="high.157" depart="273.00" arrival="538.00">
        <route edges="start middle jam bottleneck end"/>
    </vehicle>

    <vehicle id="high.139" depart="250.00" arrival="543.00">
        <route edges="start middle jam bottleneck end"/>
    </vehicle>

    <vehicle id="high.167" depart="314.00" arrival="546.00">
        <route edges="start middle jam bottleneck end"/>
    </vehicle>

    <vehicle id="high.158" depart="275.00" arrival="547.00">
        <route edges="start middle jam bottleneck end"/>
    </vehicle>

    <vehicle id="high.160" depart="280.00" arrival="551.00">
        <route edges="start middle jam bottleneck end"/>
    </vehicle>

    <vehicle id="high.141" depart="252.00" arrival="553.00">
        <route edges="start middle jam bottleneck end"/>
    </vehicle>

    <vehicle id="high.159" depart="279.00" arrival="556.00">
        <route edges="start middle jam bottleneck end"/>
    </vehicle>

    <vehicle id="high.148" depart="261.00" arrival="557.00">
        <route edges="start middle jam bottleneck end"/>
    </vehicle>

    <vehicle id="high.179" depart="359.00" arrival="566.00">
        <route edges="start middle jam bottleneck end"/>
    </vehicle>

    <vehicle id="high.164" depart="290.00" arrival="571.00">
        <route edges="start middle jam bottleneck end"/>
    </vehicle>

    <vehicle id="high.169" depart="328.00" arrival="574.00">
        <route edges="start middle jam bottleneck end"/>
    </vehicle>

    <vehicle id="high.151" depart="266.00" arrival="575.00">
        <route edges="start middle jam bottleneck end"/>
    </vehicle>

    <vehicle id="high.192" depart="406.00" arrival="579.00">
        <route edges="start middle jam bottleneck end"/>
    </vehicle>

    <vehicle id="high.188" depart="375.00" arrival="581.00">
        <route edges="start middle jam bottleneck end"/>
    </vehicle>

    <vehicle id="high.189" depart="379.00" arrival="585.00">
        <route edges="start middle jam bottleneck end"/>
    </vehicle>

    <vehicle id="high.172" depart="349.00" arrival="589.00">
        <route edges="start middle jam bottleneck end"/>
    </vehicle>

    <vehicle id="high.155" depart="270.00" arrival="590.00">
        <route edges="start middle jam bottleneck end"/>
    </vehicle>

    <vehicle id="high.183" depart="365.00" arrival="598.00">
        <route edges="start middle jam bottleneck end"/>
    </vehicle>

    <vehicle id="high.162" depart="282.00" arrival="603.00">
        <route edges="start middle jam bottleneck end"/>
    </vehicle>

    <vehicle id="high.165" depart="295.00" arrival="608.00">
        <route edges="start middle jam bottleneck end"/>
    </vehicle>

    <vehicle id="high.182" depart="362.00" arrival="613.00">
        <route edges="start middle jam bottleneck end"/>
    </vehicle>

    <vehicle id="high.173" depart="350.00" arrival="616.00">
        <route edges="start middle jam bottleneck end"/>
    </vehicle>

    <vehicle id="high.185" depart="370.00" arrival="617.00">
        <route edges="start middle jam bottleneck end"/>
    </vehicle>

    <vehicle id="high.175" depart="352.00" arrival="621.00">
        <route edges="start middle jam bottleneck end"/>
    </vehicle>

    <vehicle id="high.168" depart="321.00" arrival="623.00">
        <route edges="start middle jam bottleneck end"/>
    </vehicle>

    <vehicle id="high.177" depart="355.00" arrival="626.00">
        <route edges="start middle jam bottleneck end"/>
    </vehicle>

    <vehicle id="high.170" depart="337.00" arrival="629.00">
        <route edges="start middle jam bottleneck end"/>
    </vehicle>

    <vehicle id="high.171" depart="340.00" arrival="634.00">
        <route edges="start middle jam bottleneck end"/>
    </vehicle>

    <vehicle id="high.174" depart="351.00" arrival="639.00">
        <route edges="start middle jam bottleneck end"/>
    </vehicle>

    <vehicle id="high.180" depart="362.00" arrival="643.00">
        <route edges="start middle jam bottleneck end"/>
    </vehicle>

    <vehicle id="high.176" depart="355.00" arrival="644.00">
        <route edges="start middle jam bottleneck end"/>
    </vehicle>

    <vehicle id="high.186" depart="372.00" arrival="648.00">
        <route edges="start middle jam bottleneck end"/>
    </vehicle>

    <vehicle id="high.196" depart="425.00" arrival="650.00">
        <route edges="start middle jam bottleneck end"/>
    </vehicle>

    <vehicle id="high.195" depart="422.00" arrival="654.00">
        <route edges="start middle jam bottleneck end"/>
    </vehicle>

    <vehicle id="high.181" depart="362.00" arrival="661.00">
        <route edges="start middle jam bottleneck end"/>
    </vehicle>

    <vehicle id="high.178" depart="359.00" arrival="666.00">
        <route edges="start middle jam bottleneck end"/>
    </vehicle>

    <vehicle id="high.187" depart="374.00" arrival="670.00">
        <route edges="start middle jam bottleneck end"/>
    </vehicle>

    <vehicle id="high.207" depart="488.00" arrival="671.00">
        <route edges="start middle jam bottleneck end"/>
    </vehicle>

    <vehicle id="high.198" depart="427.00" arrival="675.00">
        <route edges="start middle jam bottleneck end"/>
    </vehicle>

    <vehicle id="high.184" depart="367.00" arrival="677.00">
        <route edges="start middle jam bottleneck end"/>
    </vehicle>

    <vehicle id="high.201" depart="477.00" arrival="680.00">
        <route edges="start middle jam bottleneck end"/>
    </vehicle>

    <vehicle id="high.203" depart="481.00" arrival="681.00">
        <route edges="start middle jam bottleneck end"/>
    </vehicle>

    <vehicle id="high.204" depart="482.00" arrival="685.00">
        <route edges="start middle jam bottleneck end"/>
    </vehicle>

    <vehicle id="high.190" depart="381.00" arrival="688.00">
        <route edges="start middle jam bottleneck end"/>
    </vehicle>

    <vehicle id="high.208" depart="489.00" arrival="691.00">
        <route edges="start middle jam bottleneck end"/>
    </vehicle>

    <vehicle id="high.220" depart="508.00" arrival="695.00">
        <route edges="start middle jam bottleneck end"/>
    </vehicle>

    <vehicle id="high.191" depart="402.00" arrival="702.00">
        <route edges="start middle jam bottleneck end"/>
    </vehicle>

    <vehicle id="high.210" depart="491.00" arrival="707.00">
        <route edges="start middle jam bottleneck end"/>
    </vehicle>

    <vehicle id="high.193" depart="412.00" arrival="712.00">
        <route edges="start middle jam bottleneck end"/>
    </vehicle>

    <vehicle id="high.206" depart="487.00" arrival="716.00">
        <route edges="start middle jam bottleneck end"/>
    </vehicle>

    <vehicle id="high.213" depart="497.00" arrival="717.00">
        <route edges="start middle jam bottleneck end"/>
    </vehicle>

    <vehicle id="high.209" depart="490.00" arrival="721.00">
        <route edges="start middle jam bottleneck end"/>
    </vehicle>

    <vehicle id="high.211" depart="493.00" arrival="723.00">
        <route edges="start middle jam bottleneck end"/>
    </vehicle>

    <vehicle id="high.226" depart="543.00" arrival="726.00">
        <route edges="start middle jam bottleneck end"/>
    </vehicle>

    <vehicle id="high.215" depart="500.00" arrival="727.00">
        <route edges="start middle jam bottleneck end"/>
    </vehicle>

    <vehicle id="high.194" depart="421.00" arrival="736.00">
        <route edges="start middle jam bottleneck end"/>
    </vehicle>

    <vehicle id="high.212" depart="495.00" arrival="741.00">
        <route edges="start middle jam bottleneck end"/>
    </vehicle>

    <vehicle id="high.197" depart="426.00" arrival="746.00">
        <route edges="start middle jam bottleneck end"/>
    </vehicle>

    <vehicle id="high.199" depart="433.00" arrival="751.00">
        <route edges="start middle jam bottleneck end"/>
    </vehicle>

    <vehicle id="high.200" depart="475.00" arrival="756.00">
        <route edges="start middle jam bottleneck end"/>
    </vehicle>

    <vehicle id="high.235" depart="588.00" arrival="761.00">
        <route edges="start middle jam bottleneck end"/>
    </vehicle>

    <vehicle id="high.202" depart="481.00" arrival="766.00">
        <route edges="start middle jam bottleneck end"/>
    </vehicle>

    <vehicle id="high.229" depart="545.00" arrival="770.00">
        <route edges="start middle jam bottleneck end"/>
    </vehicle>

    <vehicle id="high.219" depart="507.00" arrival="771.00">
        <route edges="start middle jam bottleneck end"/>