<?xml version="1.0" encoding="UTF-8"?>

<!-- generated on Fri Sep  9 14:56:15 2016 by SUMO Version dev-SVN-r21424
<?xml version="1.0" encoding="UTF-8"?>

<configuration xmlns:xsi="http://www.w3.org/2001/XMLSchema-instance" xsi:noNamespaceSchemaLocation="http://sumo.dlr.de/xsd/sumoConfiguration.xsd">

    <input>
        <net-file value="net.net.xml"/>
        <route-files value="input_routes.rou.xml"/>
        <additional-files value="input_additional.add.xml"/>
    </input>

    <output>
        <tripinfo-output value="tripinfos.xml"/>
    </output>

    <processing>
        <step-method.ballistic value="true"/>
    </processing>

    <report>
        <xml-validation value="never"/>
        <duration-log.disable value="true"/>
        <no-step-log value="true"/>
    </report>

</configuration>
-->

<tripinfos xmlns:xsi="http://www.w3.org/2001/XMLSchema-instance" xsi:noNamespaceSchemaLocation="http://sumo.dlr.de/xsd/tripinfo_file.xsd">
    <tripinfo id="SN.0" depart="1.00" departLane="SC_0" departPos="5.10" departSpeed="13.89" departDelay="0.00" arrival="16.00" arrivalLane="CN_0" arrivalPos="95.25" arrivalSpeed="13.89" duration="15.00" routeLength="194.90" waitSteps="0" timeLoss="0.00" rerouteNo="0" devices="tripinfo_SN.0 routing_SN.0" vType="DEFAULT_VEHTYPE" vaporized=""/>
    <tripinfo id="SN.1" depart="2.00" departLane="SC_0" departPos="5.10" departSpeed="11.95" departDelay="0.00" arrival="17.00" arrivalLane="CN_0" arrivalPos="95.25" arrivalSpeed="13.89" duration="15.00" routeLength="194.90" waitSteps="0" timeLoss="0.46" rerouteNo="0" devices="tripinfo_SN.1 routing_SN.1" vType="DEFAULT_VEHTYPE" vaporized=""/>
    <tripinfo id="SN.2" depart="5.00" departLane="SC_0" departPos="5.10" departSpeed="13.89" departDelay="0.00" arrival="20.00" arrivalLane="CN_0" arrivalPos="95.25" arrivalSpeed="13.89" duration="15.00" routeLength="194.90" waitSteps="0" timeLoss="0.00" rerouteNo="0" devices="tripinfo_SN.2 routing_SN.2" vType="DEFAULT_VEHTYPE" vaporized=""/>
    <tripinfo id="SN.3" depart="10.00" departLane="SC_0" departPos="5.10" departSpeed="13.89" departDelay="0.00" arrival="25.00" arrivalLane="CN_0" arrivalPos="95.25" arrivalSpeed="13.89" duration="15.00" routeLength="194.90" waitSteps="0" timeLoss="0.00" rerouteNo="0" devices="tripinfo_SN.3 routing_SN.3" vType="DEFAULT_VEHTYPE" vaporized=""/>
    <tripinfo id="EN.0" depart="3.00" departLane="EC_0" departPos="5.10" departSpeed="13.89" departDelay="0.00" arrival="28.00" arrivalLane="CN_0" arrivalPos="95.25" arrivalSpeed="13.89" duration="25.00" routeLength="190.40" waitSteps="7" timeLoss="11.20" rerouteNo="0" devices="tripinfo_EN.0 routing_EN.0" vType="DEFAULT_VEHTYPE" vaporized=""/>
    <tripinfo id="SN.4" depart="16.00" departLane="SC_0" departPos="5.10" departSpeed="13.89" departDelay="0.00" arrival="31.00" arrivalLane="CN_0" arrivalPos="95.25" arrivalSpeed="13.89" duration="15.00" routeLength="194.90" waitSteps="0" timeLoss="0.00" rerouteNo="0" devices="tripinfo_SN.4 routing_SN.4" vType="DEFAULT_VEHTYPE" vaporized=""/>
    <tripinfo id="EN.1" depart="4.00" departLane="EC_0" departPos="5.10" departSpeed="11.95" departDelay="0.00" arrival="34.00" arrivalLane="CN_0" arrivalPos="95.25" arrivalSpeed="13.89" duration="30.00" routeLength="190.40" waitSteps="10" timeLoss="16.11" rerouteNo="0" devices="tripinfo_EN.1 routing_EN.1" vType="DEFAULT_VEHTYPE" vaporized=""/>
    <tripinfo id="EN.2" depart="7.00" departLane="EC_0" departPos="5.10" departSpeed="13.89" departDelay="0.00" arrival="36.00" arrivalLane="CN_0" arrivalPos="95.25" arrivalSpeed="13.89" duration="29.00" routeLength="190.40" waitSteps="9" timeLoss="14.85" rerouteNo="0" devices="tripinfo_EN.2 routing_EN.2" vType="DEFAULT_VEHTYPE" vaporized=""/>
    <tripinfo id="EN.3" depart="8.00" departLane="EC_0" departPos="5.10" departSpeed="11.95" departDelay="0.00" arrival="40.00" arrivalLane="CN_0" arrivalPos="95.25" arrivalSpeed="13.89" duration="32.00" routeLength="190.40" waitSteps="9" timeLoss="17.47" rerouteNo="0" devices="tripinfo_EN.3 routing_EN.3" vType="DEFAULT_VEHTYPE" vaporized=""/>
    <tripinfo id="EN.4" depart="17.00" departLane="EC_0" departPos="5.10" departSpeed="13.89" departDelay="0.00" arrival="42.00" arrivalLane="CN_0" arrivalPos="95.25" arrivalSpeed="13.89" duration="25.00" routeLength="190.40" waitSteps="2" timeLoss="11.23" rerouteNo="0" devices="tripinfo_EN.4 routing_EN.4" vType="DEFAULT_VEHTYPE" vaporized=""/>
    <tripinfo id="EN.5" depart="19.00" departLane="EC_0" departPos="5.10" departSpeed="13.89" departDelay="0.00" arrival="44.00" arrivalLane="CN_0" arrivalPos="95.25" arrivalSpeed="13.89" duration="25.00" routeLength="190.40" waitSteps="2" timeLoss="10.76" rerouteNo="0" devices="tripinfo_EN.5 routing_EN.5" vType="DEFAULT_VEHTYPE" vaporized=""/>
    <tripinfo id="EN.6" depart="22.00" departLane="EC_0" departPos="5.10" departSpeed="13.89" departDelay="0.00" arrival="48.00" arrivalLane="CN_0" arrivalPos="95.25" arrivalSpeed="13.89" duration="26.00" routeLength="190.40" waitSteps="2" timeLoss="11.35" rerouteNo="0" devices="tripinfo_EN.6 routing_EN.6" vType="DEFAULT_VEHTYPE" vaporized=""/>
    <tripinfo id="EN.7" depart="24.00" departLane="EC_0" departPos="5.10" departSpeed="13.89" departDelay="0.00" arrival="51.00" arrivalLane="CN_0" arrivalPos="95.25" arrivalSpeed="13.89" duration="27.00" routeLength="190.40" waitSteps="2" timeLoss="12.39" rerouteNo="0" devices="tripinfo_EN.7 routing_EN.7" vType="DEFAULT_VEHTYPE" vaporized=""/>
    <tripinfo id="SE.0" depart="48.00" departLane="SC_0" departPos="5.10" departSpeed="13.89" departDelay="0.00" arrival="64.00" arrivalLane="CE_0" arrivalPos="95.25" arrivalSpeed="13.89" duration="16.00" routeLength="190.40" waitSteps="0" timeLoss="1.89" rerouteNo="0" devices="tripinfo_SE.0 routing_SE.0" vType="DEFAULT_VEHTYPE" vaporized=""/>
    <tripinfo id="SE.1" depart="49.00" departLane="SC_0" departPos="5.10" departSpeed="11.95" departDelay="0.00" arrival="66.00" arrivalLane="CE_0" arrivalPos="95.25" arrivalSpeed="13.89" duration="17.00" routeLength="190.40" waitSteps="0" timeLoss="2.58" rerouteNo="0" devices="tripinfo_SE.1 routing_SE.1" vType="DEFAULT_VEHTYPE" vaporized=""/>
    <tripinfo id="WE.0" depart="54.00" departLane="WC_0" departPos="5.10" departSpeed="13.89" departDelay="0.00" arrival="69.00" arrivalLane="CE_0" arrivalPos="95.25" arrivalSpeed="13.89" duration="15.00" routeLength="194.90" waitSteps="0" timeLoss="0.00" rerouteNo="0" devices="tripinfo_WE.0 routing_WE.0" vType="DEFAULT_VEHTYPE" vaporized=""/>
    <tripinfo id="WE.1" depart="58.00" departLane="WC_0" departPos="5.10" departSpeed="13.89" departDelay="0.00" arrival="73.00" arrivalLane="CE_0" arrivalPos="95.25" arrivalSpeed="13.89" duration="15.00" routeLength="194.90" waitSteps="0" timeLoss="0.00" rerouteNo="0" devices="tripinfo_WE.1 routing_WE.1" vType="DEFAULT_VEHTYPE" vaporized=""/>
    <tripinfo id="WE.2" depart="60.00" departLane="WC_0" departPos="5.10" departSpeed="13.89" departDelay="0.00" arrival="75.00" arrivalLane="CE_0" arrivalPos="95.25" arrivalSpeed="13.89" duration="15.00" routeLength="194.90" waitSteps="0" timeLoss="0.00" rerouteNo="0" devices="tripinfo_WE.2 routing_WE.2" vType="DEFAULT_VEHTYPE" vaporized=""/>
    <tripinfo id="WE.3" depart="61.00" departLane="WC_0" departPos="5.10" departSpeed="11.95" departDelay="0.00" arrival="76.00" arrivalLane="CE_0" arrivalPos="95.25" arrivalSpeed="13.89" duration="15.00" routeLength="194.90" waitSteps="0" timeLoss="0.46" rerouteNo="0" devices="tripinfo_WE.3 routing_WE.3" vType="DEFAULT_VEHTYPE" vaporized=""/>
    <tripinfo id="WE.4" depart="65.00" departLane="WC_0" departPos="5.10" departSpeed="13.89" departDelay="0.00" arrival="80.00" arrivalLane="CE_0" arrivalPos="95.25" arrivalSpeed="13.89" duration="15.00" routeLength="194.90" waitSteps="0" timeLoss="0.00" rerouteNo="0" devices="tripinfo_WE.4 routing_WE.4" vType="DEFAULT_VEHTYPE" vaporized=""/>
    <tripinfo id="SE.2" depart="50.00" departLane="SC_0" departPos="5.10" departSpeed="9.75" departDelay="0.00" arrival="83.00" arrivalLane="CE_0" arrivalPos="95.25" arrivalSpeed="13.89" duration="33.00" routeLength="190.40" waitSteps="13" timeLoss="19.01" rerouteNo="0" devices="tripinfo_SE.2 routing_SE.2" vType="DEFAULT_VEHTYPE" vaporized=""/>
    <tripinfo id="SE.3" depart="52.00" departLane="SC_0" departPos="5.10" departSpeed="11.65" departDelay="0.00" arrival="85.00" arrivalLane="CE_0" arrivalPos="95.25" arrivalSpeed="13.89" duration="33.00" routeLength="190.40" waitSteps="13" timeLoss="18.75" rerouteNo="0" devices="tripinfo_SE.3 routing_SE.3" vType="DEFAULT_VEHTYPE" vaporized=""/>
    <tripinfo id="SE.4" depart="57.00" departLane="SC_0" departPos="5.10" departSpeed="13.89" departDelay="0.00" arrival="89.00" arrivalLane="CE_0" arrivalPos="95.25" arrivalSpeed="13.89" duration="32.00" routeLength="190.40" waitSteps="12" timeLoss="17.56" rerouteNo="0" devices="tripinfo_SE.4 routing_SE.4" vType="DEFAULT_VEHTYPE" vaporized=""/>
    <tripinfo id="SE.5" depart="58.00" departLane="SC_0" departPos="5.10" departSpeed="11.95" departDelay="0.00" arrival="91.00" arrivalLane="CE_0" arrivalPos="95.25" arrivalSpeed="13.89" duration="33.00" routeLength="190.40" waitSteps="12" timeLoss="19.14" rerouteNo="0" devices="tripinfo_SE.5 routing_SE.5" vType="DEFAULT_VEHTYPE" vaporized=""/>
    <tripinfo id="SE.6" depart="60.00" departLane="SC_0" departPos="5.10" departSpeed="13.62" departDelay="0.00" arrival="93.00" arrivalLane="CE_0" arrivalPos="95.25" arrivalSpeed="13.89" duration="33.00" routeLength="190.40" waitSteps="12" timeLoss="18.75" rerouteNo="0" devices="tripinfo_SE.6 routing_SE.6" vType="DEFAULT_VEHTYPE" vaporized=""/>
    <tripinfo id="SE.7" depart="65.00" departLane="SC_0" departPos="5.10" departSpeed="13.89" departDelay="0.00" arrival="97.00" arrivalLane="CE_0" arrivalPos="95.25" arrivalSpeed="13.89" duration="32.00" routeLength="190.40" waitSteps="8" timeLoss="17.35" rerouteNo="0" devices="tripinfo_SE.7 routing_SE.7" vType="DEFAULT_VEHTYPE" vaporized=""/>
    <tripinfo id="SE.8" depart="68.00" departLane="SC_0" departPos="5.10" departSpeed="13.89" departDelay="0.00" arrival="98.00" arrivalLane="CE_0" arrivalPos="95.25" arrivalSpeed="13.89" duration="30.00" routeLength="190.40" waitSteps="7" timeLoss="15.90" rerouteNo="0" devices="tripinfo_SE.8 routing_SE.8" vType="DEFAULT_VEHTYPE" vaporized=""/>
    <tripinfo id="SE.9" depart="69.00" departLane="SC_0" departPos="5.10" departSpeed="11.95" departDelay="0.00" arrival="100.00" arrivalLane="CE_0" arrivalPos="95.25" arrivalSpeed="13.89" duration="31.00" routeLength="190.40" waitSteps="7" timeLoss="16.35" rerouteNo="0" devices="tripinfo_SE.9 routing_SE.9" vType="DEFAULT_VEHTYPE" vaporized=""/>
</tripinfos>
