<?xml version="1.0" encoding="UTF-8"?>

<!-- generated on Fri Sep  9 15:30:25 2016 by SUMO Version dev-SVN-r21424
<?xml version="1.0" encoding="UTF-8"?>

<configuration xmlns:xsi="http://www.w3.org/2001/XMLSchema-instance" xsi:noNamespaceSchemaLocation="http://sumo.dlr.de/xsd/sumoConfiguration.xsd">

    <input>
        <net-file value="net.net.xml"/>
        <route-files value="input_routes.rou.xml"/>
        <additional-files value="input_additional.add.xml,input_additional2.add.xml"/>
    </input>

    <time>
        <begin value="0"/>
        <end value="1000"/>
    </time>

    <processing>
        <step-method.ballistic value="true"/>
    </processing>

    <report>
        <xml-validation value="never"/>
        <duration-log.disable value="true"/>
        <no-step-log value="true"/>
    </report>

</configuration>
-->

<meandata xmlns:xsi="http://www.w3.org/2001/XMLSchema-instance" xsi:noNamespaceSchemaLocation="http://sumo.dlr.de/xsd/meandata_file.xsd">
    <interval begin="0.00" end="25.00" id="dump_25">
        <edge id="beg" sampledSeconds="42.00" traveltime="26.98" overlapTraveltime="27.15" density="3.37" occupancy="1.01" waitingTime="0.00" speed="18.48" departed="3" arrived="0" entered="0" left="0" laneChangedFrom="0" laneChangedTo="0"/>
    </interval>
    <interval begin="25.00" end="50.00" id="dump_25">
        <edge id="beg" sampledSeconds="61.92" traveltime="25.38" overlapTraveltime="24.92" density="4.97" occupancy="1.49" waitingTime="0.00" speed="20.13" departed="2" arrived="0" entered="0" left="3" laneChangedFrom="0" laneChangedTo="0"/>
        <edge id="middle" sampledSeconds="38.91" traveltime="353.75" overlapTraveltime="354.82" density="1.57" occupancy="0.47" waitingTime="0.00" speed="2.80" departed="0" arrived="0" entered="3" left="0" laneChangedFrom="0" laneChangedTo="0"/>
    </interval>
    <interval begin="50.00" end="75.00" id="dump_25">
        <edge id="beg" sampledSeconds="64.62" traveltime="25.69" overlapTraveltime="25.44" density="5.18" occupancy="1.56" waitingTime="0.00" speed="19.72" departed="3" arrived="0" entered="0" left="2" laneChangedFrom="0" laneChangedTo="0"/>
        <edge id="middle" sampledSeconds="100.94" traveltime="353.75" overlapTraveltime="354.82" density="4.08" occupancy="1.22" waitingTime="0.00" speed="2.80" departed="0" arrived="0" entered="2" left="0" laneChangedFrom="0" laneChangedTo="0"/>
    </interval>
    <interval begin="75.00" end="100.00" id="dump_25">
        <edge id="beg" sampledSeconds="61.92" traveltime="25.38" overlapTraveltime="24.92" density="4.97" occupancy="1.49" waitingTime="0.00" speed="20.13" departed="2" arrived="0" entered="0" left="3" laneChangedFrom="0" laneChangedTo="0"/>
        <edge id="middle" sampledSeconds="163.91" traveltime="353.75" overlapTraveltime="354.82" density="6.62" occupancy="1.99" waitingTime="0.00" speed="2.80" departed="0" arrived="0" entered="3" left="0" laneChangedFrom="0" laneChangedTo="0"/>
    </interval>
    <interval begin="100.00" end="125.00" id="dump_25">
        <edge id="beg" sampledSeconds="61.04" traveltime="23.29" overlapTraveltime="23.44" density="4.90" occupancy="1.47" waitingTime="0.00" speed="21.40" departed="3" arrived="0" entered="0" left="3" laneChangedFrom="0" laneChangedTo="0"/>
        <edge id="middle" sampledSeconds="230.51" traveltime="34.39" overlapTraveltime="34.50" density="9.31" occupancy="2.79" waitingTime="0.00" speed="28.80" departed="0" arrived="0" entered="3" left="0" laneChangedFrom="0" laneChangedTo="0"/>
    </interval>
    <interval begin="125.00" end="150.00" id="dump_25">
        <edge id="beg" sampledSeconds="57.22" traveltime="22.74" overlapTraveltime="22.88" density="4.59" occupancy="1.38" waitingTime="0.00" speed="21.92" departed="2" arrived="0" entered="0" left="2" laneChangedFrom="0" laneChangedTo="0"/>
        <edge id="end" sampledSeconds="106.51" traveltime="22.24" overlapTraveltime="22.44" density="8.55" occupancy="2.56" waitingTime="0.00" speed="22.35" departed="0" arrived="0" entered="10" left="0" laneChangedFrom="0" laneChangedTo="0"/>
        <edge id="middle" sampledSeconds="184.91" traveltime="43.59" overlapTraveltime="44.37" density="7.47" occupancy="2.24" waitingTime="0.00" speed="22.39" departed="0" arrived="0" entered="2" left="10" laneChangedFrom="0" laneChangedTo="0"/>
    </interval>
    <interval begin="150.00" end="175.00" id="dump_25">
        <edge id="beg" sampledSeconds="60.84" traveltime="23.21" overlapTraveltime="23.36" density="4.88" occupancy="1.46" waitingTime="0.00" speed="21.47" departed="3" arrived="0" entered="0" left="3" laneChangedFrom="0" laneChangedTo="0"/>
        <edge id="end" sampledSeconds="131.55" traveltime="18.90" overlapTraveltime="19.02" density="10.55" occupancy="3.17" waitingTime="0.00" speed="26.37" departed="0" arrived="0" entered="3" left="11" laneChangedFrom="0" laneChangedTo="0"/>
        <edge id="middle" sampledSeconds="72.55" traveltime="28.94" overlapTraveltime="29.41" density="2.93" occupancy="0.88" waitingTime="0.00" speed="33.78" departed="0" arrived="0" entered="3" left="3" laneChangedFrom="0" laneChangedTo="0"/>
        <edge id="rend" sampledSeconds="133.14" traveltime="17.99" overlapTraveltime="18.09" density="10.65" occupancy="3.20" waitingTime="0.00" speed="27.80" departed="0" arrived="4" entered="11" left="0" laneChangedFrom="0" laneChangedTo="0"/>
    </interval>
    <interval begin="175.00" end="200.00" id="dump_25">
        <edge id="beg" sampledSeconds="57.22" traveltime="22.74" overlapTraveltime="22.88" density="4.59" occupancy="1.38" waitingTime="0.00" speed="21.92" departed="2" arrived="0" entered="0" left="2" laneChangedFrom="0" laneChangedTo="0"/>
        <edge id="end" sampledSeconds="51.51" traveltime="20.57" overlapTraveltime="20.71" density="4.13" occupancy="1.24" waitingTime="0.00" speed="24.21" departed="0" arrived="0" entered="2" left="2" laneChangedFrom="0" laneChangedTo="0"/>
        <edge id="middle" sampledSeconds="73.35" traveltime="28.94" overlapTraveltime="29.30" density="2.96" occupancy="0.89" waitingTime="0.00" speed="33.90" departed="0" arrived="0" entered="2" left="2" laneChangedFrom="0" laneChangedTo="0"/>
        <edge id="rend" sampledSeconds="49.93" traveltime="17.99" overlapTraveltime="18.09" density="3.99" occupancy="1.20" waitingTime="0.00" speed="27.80" departed="0" arrived="5" entered="2" left="0" laneChangedFrom="0" laneChangedTo="0"/>
    </interval>
    <interval begin="200.00" end="225.00" id="dump_25">
        <edge id="beg" sampledSeconds="60.84" traveltime="23.21" overlapTraveltime="23.36" density="4.88" occupancy="1.46" waitingTime="0.00" speed="21.47" departed="3" arrived="0" entered="0" left="3" laneChangedFrom="0" laneChangedTo="0"/>
        <edge id="end" sampledSeconds="52.14" traveltime="19.92" overlapTraveltime="20.07" density="4.18" occupancy="1.26" waitingTime="0.00" speed="24.99" departed="0" arrived="0" entered="3" left="2" laneChangedFrom="0" laneChangedTo="0"/>
        <edge id="middle" sampledSeconds="72.52" traveltime="28.96" overlapTraveltime="29.46" density="2.93" occupancy="0.88" waitingTime="0.00" speed="33.72" departed="0" arrived="0" entered="3" left="3" laneChangedFrom="0" laneChangedTo="0"/>
        <edge id="rend" sampledSeconds="43.93" traveltime="17.99" overlapTraveltime="18.09" density="3.51" occupancy="1.05" waitingTime="0.00" speed="27.80" departed="0" arrived="3" entered="2" left="0" laneChangedFrom="0" laneChangedTo="0"/>
    </interval>
    <interval begin="225.00" end="250.00" id="dump_25">
        <edge id="beg" sampledSeconds="57.22" traveltime="22.74" overlapTraveltime="22.88" density="4.59" occupancy="1.38" waitingTime="0.00" speed="21.92" departed="2" arrived="0" entered="0" left="2" laneChangedFrom="0" laneChangedTo="0"/>
        <edge id="end" sampledSeconds="51.64" traveltime="20.57" overlapTraveltime="20.70" density="4.14" occupancy="1.24" waitingTime="0.00" speed="24.22" departed="0" arrived="0" entered="2" left="3" laneChangedFrom="0" laneChangedTo="0"/>
        <edge id="middle" sampledSeconds="73.35" traveltime="28.94" overlapTraveltime="29.30" density="2.96" occupancy="0.89" waitingTime="0.00" speed="33.90" departed="0" arrived="0" entered="2" left="2" laneChangedFrom="0" laneChangedTo="0"/>
        <edge id="rend" sampledSeconds="45.89" traveltime="17.99" overlapTraveltime="18.09" density="3.67" occupancy="1.10" waitingTime="0.00" speed="27.80" departed="0" arrived="2" entered="3" left="0" laneChangedFrom="0" laneChangedTo="0"/>
    </interval>
    <interval begin="250.00" end="275.00" id="dump_25">
        <edge id="beg" sampledSeconds="60.84" traveltime="23.21" overlapTraveltime="23.36" density="4.88" occupancy="1.46" waitingTime="0.00" speed="21.47" departed="3" arrived="0" entered="0" left="3" laneChangedFrom="0" laneChangedTo="0"/>
        <edge id="end" sampledSeconds="52.14" traveltime="19.92" overlapTraveltime="20.07" density="4.18" occupancy="1.26" waitingTime="0.00" speed="24.99" departed="0" arrived="0" entered="3" left="2" laneChangedFrom="0" laneChangedTo="0"/>
        <edge id="middle" sampledSeconds="72.52" traveltime="28.96" overlapTraveltime="29.46" density="2.93" occupancy="0.88" waitingTime="0.00" speed="33.72" departed="0" arrived="0" entered="3" left="3" laneChangedFrom="0" laneChangedTo="0"/>
        <edge id="rend" sampledSeconds="43.93" traveltime="17.99" overlapTraveltime="18.09" density="3.51" occupancy="1.05" waitingTime="0.00" speed="27.80" departed="0" arrived="3" entered="2" left="0" laneChangedFrom="0" laneChangedTo="0"/>
    </interval>
    <interval begin="275.00" end="300.00" id="dump_25">
        <edge id="beg" sampledSeconds="57.22" traveltime="22.74" overlapTraveltime="22.88" density="4.59" occupancy="1.38" waitingTime="0.00" speed="21.92" departed="2" arrived="0" entered="0" left="2" laneChangedFrom="0" laneChangedTo="0"/>
        <edge id="end" sampledSeconds="51.64" traveltime="20.57" overlapTraveltime="20.70" density="4.14" occupancy="1.24" waitingTime="0.00" speed="24.22" departed="0" arrived="0" entered="2" left="3" laneChangedFrom="0" laneChangedTo="0"/>
        <edge id="middle" sampledSeconds="73.35" traveltime="28.94" overlapTraveltime="29.30" density="2.96" occupancy="0.89" waitingTime="0.00" speed="33.90" departed="0" arrived="0" entered="2" left="2" laneChangedFrom="0" laneChangedTo="0"/>
        <edge id="rend" sampledSeconds="45.89" traveltime="17.99" overlapTraveltime="18.09" density="3.67" occupancy="1.10" waitingTime="0.00" speed="27.80" departed="0" arrived="2" entered="3" left="0" laneChangedFrom="0" laneChangedTo="0"/>
    </interval>
    <interval begin="300.00" end="325.00" id="dump_25">
        <edge id="beg" sampledSeconds="19.22" traveltime="18.58" overlapTraveltime="18.76" density="1.54" occupancy="0.46" waitingTime="0.00" speed="26.74" departed="0" arrived="0" entered="0" left="2" laneChangedFrom="0" laneChangedTo="0"/>
        <edge id="end" sampledSeconds="52.14" traveltime="19.92" overlapTraveltime="20.07" density="4.18" occupancy="1.26" waitingTime="0.00" speed="24.99" departed="0" arrived="0" entered="3" left="2" laneChangedFrom="0" laneChangedTo="0"/>
        <edge id="middle" sampledSeconds="72.28" traveltime="28.92" overlapTraveltime="29.42" density="2.92" occupancy="0.88" waitingTime="0.00" speed="33.77" departed="0" arrived="0" entered="2" left="3" laneChangedFrom="0" laneChangedTo="0"/>
        <edge id="rend" sampledSeconds="43.93" traveltime="17.99" overlapTraveltime="18.09" density="3.51" occupancy="1.05" waitingTime="0.00" speed="27.80" departed="0" arrived="3" entered="2" left="0" laneChangedFrom="0" laneChangedTo="0"/>
    </interval>
    <interval begin="325.00" end="350.00" id="dump_25">
        <edge id="end" sampledSeconds="51.64" traveltime="20.57" overlapTraveltime="20.70" density="4.14" occupancy="1.24" waitingTime="0.00" speed="24.22" departed="0" arrived="0" entered="2" left="3" laneChangedFrom="0" laneChangedTo="0"/>
        <edge id="middle" sampledSeconds="27.87" traveltime="33.80" overlapTraveltime="34.72" density="1.13" occupancy="0.34" waitingTime="0.00" speed="28.62" departed="0" arrived="0" entered="0" left="2" laneChangedFrom="0" laneChangedTo="0"/>
        <edge id="rend" sampledSeconds="45.89" traveltime="17.99" overlapTraveltime="18.09" density="3.67" occupancy="1.10" waitingTime="0.00" speed="27.80" departed="0" arrived="2" entered="3" left="0" laneChangedFrom="0" laneChangedTo="0"/>
    </interval>
    <interval begin="350.00" end="375.00" id="dump_25">
        <edge id="end" sampledSeconds="20.25" traveltime="18.02" overlapTraveltime="18.13" density="1.62" occupancy="0.49" waitingTime="0.00" speed="27.67" departed="0" arrived="0" entered="0" left="2" laneChangedFrom="0" laneChangedTo="0"/>
        <edge id="rend" sampledSeconds="43.93" traveltime="17.99" overlapTraveltime="18.09" density="3.51" occupancy="1.05" waitingTime="0.00" speed="27.80" departed="0" arrived="3" entered="2" left="0" laneChangedFrom="0" laneChangedTo="0"/>
    </interval>
    <interval begin="375.00" end="400.00" id="dump_25">
        <edge id="rend" sampledSeconds="8.00" traveltime="17.99" overlapTraveltime="18.09" density="0.64" occupancy="0.19" waitingTime="0.00" speed="27.80" departed="0" arrived="1" entered="0" left="0" laneChangedFrom="0" laneChangedTo="0"/>
    </interval>
    <interval begin="400.00" end="425.00" id="dump_25"/>
    <interval begin="425.00" end="450.00" id="dump_25"/>
    <interval begin="450.00" end="475.00" id="dump_25"/>
    <interval begin="475.00" end="500.00" id="dump_25"/>
    <interval begin="500.00" end="525.00" id="dump_25"/>
    <interval begin="525.00" end="550.00" id="dump_25"/>
    <interval begin="550.00" end="575.00" id="dump_25"/>
    <interval begin="575.00" end="600.00" id="dump_25"/>
    <interval begin="600.00" end="625.00" id="dump_25"/>
    <interval begin="625.00" end="650.00" id="dump_25"/>
    <interval begin="650.00" end="675.00" id="dump_25"/>
    <interval begin="675.00" end="700.00" id="dump_25"/>
    <interval begin="700.00" end="725.00" id="dump_25"/>
    <interval begin="725.00" end="750.00" id="dump_25"/>
    <interval begin="750.00" end="775.00" id="dump_25"/>
    <interval begin="775.00" end="800.00" id="dump_25"/>
    <interval begin="800.00" end="825.00" id="dump_25"/>
    <interval begin="825.00" end="850.00" id="dump_25"/>
    <interval begin="850.00" end="875.00" id="dump_25"/>
    <interval begin="875.00" end="900.00" id="dump_25"/>
    <interval begin="900.00" end="925.00" id="dump_25"/>
    <interval begin="925.00" end="950.00" id="dump_25"/>
    <interval begin="950.00" end="975.00" id="dump_25"/>
    <interval begin="975.00" end="1000.00" id="dump_25"/>
</meandata>
