<?xml version="1.0" encoding="UTF-8"?>

<!-- generated on Tue Apr  5 13:44:03 2016 by SUMO Version dev-SVN-r20343
<?xml version="1.0" encoding="UTF-8"?>

<configuration xmlns:xsi="http://www.w3.org/2001/XMLSchema-instance" xsi:noNamespaceSchemaLocation="http://sumo.dlr.de/xsd/sumoConfiguration.xsd">

    <input>
        <net-file value="net.net.xml"/>
        <additional-files value="input_routes.rou.xml,input_additional.add.xml,input_additional2.add.xml"/>
    </input>

    <time>
        <begin value="0"/>
        <end value="1000"/>
    </time>

    <report>
        <xml-validation value="never"/>
        <duration-log.disable value="true"/>
        <no-step-log value="true"/>
    </report>

</configuration>
-->

<detector xmlns:xsi="http://www.w3.org/2001/XMLSchema-instance" xsi:noNamespaceSchemaLocation="http://sumo.dlr.de/xsd/det_e2_file.xsd">
   <interval begin="0.00" end="100.00" id="3/1to2/1" nSamples="118" meanSpeed="5.00" meanOccupancy="3.88" maxOccupancy="19.89" meanMaxJamLengthInVehicles="0.49" meanMaxJamLengthInMeters="2.45" maxJamLengthInVehicles="5" maxJamLengthInMeters="25.00" jamLengthInVehiclesSum="49" jamLengthInMetersSum="245.03" meanHaltingDuration="10.80" maxHaltingDuration="20.00" haltingDurationSum="54.00" meanIntervalHaltingDuration="10.80" maxIntervalHaltingDuration="20.00" intervalHaltingDurationSum="54.00" startedHalts="5.00" meanVehicleNumber="1.18" maxVehicleNumber="6" />
   <interval begin="100.00" end="200.00" id="3/1to2/1" nSamples="793" meanSpeed="0.16" meanOccupancy="26.29" maxOccupancy="26.52" meanMaxJamLengthInVehicles="7.75" meanMaxJamLengthInMeters="38.76" maxJamLengthInVehicles="8" maxJamLengthInMeters="40.01" jamLengthInVehiclesSum="775" jamLengthInMetersSum="3875.68" meanHaltingDuration="104.00" maxHaltingDuration="120.00" haltingDurationSum="832.00" meanIntervalHaltingDuration="97.25" maxIntervalHaltingDuration="100.00" intervalHaltingDurationSum="778.00" startedHalts="3.00" meanVehicleNumber="7.93" maxVehicleNumber="8" />
   <interval begin="200.00" end="300.00" id="3/1to2/1" nSamples="800" meanSpeed="0.00" meanOccupancy="26.52" maxOccupancy="26.52" meanMaxJamLengthInVehicles="8.00" meanMaxJamLengthInMeters="40.01" maxJamLengthInVehicles="8" maxJamLengthInMeters="40.01" jamLengthInVehiclesSum="800" jamLengthInMetersSum="4000.70" meanHaltingDuration="204.00" maxHaltingDuration="220.00" haltingDurationSum="1632.00" meanIntervalHaltingDuration="100.00" maxIntervalHaltingDuration="100.00" intervalHaltingDurationSum="800.00" startedHalts="0.00" meanVehicleNumber="8.00" maxVehicleNumber="8" />
   <interval begin="300.00" end="400.00" id="3/1to2/1" nSamples="96" meanSpeed="1.77" meanOccupancy="3.12" maxOccupancy="26.52" meanMaxJamLengthInVehicles="0.52" meanMaxJamLengthInMeters="2.63" maxJamLengthInVehicles="8" maxJamLengthInMeters="40.41" jamLengthInVehiclesSum="52" jamLengthInMetersSum="262.84" meanHaltingDuration="210.50" maxHaltingDuration="223.00" haltingDurationSum="1684.00" meanIntervalHaltingDuration="6.50" maxIntervalHaltingDuration="10.00" intervalHaltingDurationSum="52.00" startedHalts="0.00" meanVehicleNumber="0.96" maxVehicleNumber="8" />
   <interval begin="400.00" end="500.00" id="3/1to2/1" nSamples="0" meanSpeed="-1.00" meanOccupancy="0.00" maxOccupancy="0.00" meanMaxJamLengthInVehicles="0.00" meanMaxJamLengthInMeters="0.00" maxJamLengthInVehicles="0" maxJamLengthInMeters="0.00" jamLengthInVehiclesSum="0" jamLengthInMetersSum="0.00" meanHaltingDuration="0.00" maxHaltingDuration="0.00" haltingDurationSum="0.00" meanIntervalHaltingDuration="0.00" maxIntervalHaltingDuration="0.00" intervalHaltingDurationSum="0.00" startedHalts="0.00" meanVehicleNumber="0.00" maxVehicleNumber="0" />
   <interval begin="500.00" end="600.00" id="3/1to2/1" nSamples="0" meanSpeed="-1.00" meanOccupancy="0.00" maxOccupancy="0.00" meanMaxJamLengthInVehicles="0.00" meanMaxJamLengthInMeters="0.00" maxJamLengthInVehicles="0" maxJamLengthInMeters="0.00" jamLengthInVehiclesSum="0" jamLengthInMetersSum="0.00" meanHaltingDuration="0.00" maxHaltingDuration="0.00" haltingDurationSum="0.00" meanIntervalHaltingDuration="0.00" maxIntervalHaltingDuration="0.00" intervalHaltingDurationSum="0.00" startedHalts="0.00" meanVehicleNumber="0.00" maxVehicleNumber="0" />
   <interval begin="600.00" end="700.00" id="3/1to2/1" nSamples="0" meanSpeed="-1.00" meanOccupancy="0.00" maxOccupancy="0.00" meanMaxJamLengthInVehicles="0.00" meanMaxJamLengthInMeters="0.00" maxJamLengthInVehicles="0" maxJamLengthInMeters="0.00" jamLengthInVehiclesSum="0" jamLengthInMetersSum="0.00" meanHaltingDuration="0.00" maxHaltingDuration="0.00" haltingDurationSum="0.00" meanIntervalHaltingDuration="0.00" maxIntervalHaltingDuration="0.00" intervalHaltingDurationSum="0.00" startedHalts="0.00" meanVehicleNumber="0.00" maxVehicleNumber="0" />
   <interval begin="700.00" end="800.00" id="3/1to2/1" nSamples="0" meanSpeed="-1.00" meanOccupancy="0.00" maxOccupancy="0.00" meanMaxJamLengthInVehicles="0.00" meanMaxJamLengthInMeters="0.00" maxJamLengthInVehicles="0" maxJamLengthInMeters="0.00" jamLengthInVehiclesSum="0" jamLengthInMetersSum="0.00" meanHaltingDuration="0.00" maxHaltingDuration="0.00" haltingDurationSum="0.00" meanIntervalHaltingDuration="0.00" maxIntervalHaltingDuration="0.00" intervalHaltingDurationSum="0.00" startedHalts="0.00" meanVehicleNumber="0.00" maxVehicleNumber="0" />
   <interval begin="800.00" end="900.00" id="3/1to2/1" nSamples="0" meanSpeed="-1.00" meanOccupancy="0.00" maxOccupancy="0.00" meanMaxJamLengthInVehicles="0.00" meanMaxJamLengthInMeters="0.00" maxJamLengthInVehicles="0" maxJamLengthInMeters="0.00" jamLengthInVehiclesSum="0" jamLengthInMetersSum="0.00" meanHaltingDuration="0.00" maxHaltingDuration="0.00" haltingDurationSum="0.00" meanIntervalHaltingDuration="0.00" maxIntervalHaltingDuration="0.00" intervalHaltingDurationSum="0.00" startedHalts="0.00" meanVehicleNumber="0.00" maxVehicleNumber="0" />
   <interval begin="900.00" end="1000.00" id="3/1to2/1" nSamples="0" meanSpeed="-1.00" meanOccupancy="0.00" maxOccupancy="0.00" meanMaxJamLengthInVehicles="0.00" meanMaxJamLengthInMeters="0.00" maxJamLengthInVehicles="0" maxJamLengthInMeters="0.00" jamLengthInVehiclesSum="0" jamLengthInMetersSum="0.00" meanHaltingDuration="0.00" maxHaltingDuration="0.00" haltingDurationSum="0.00" meanIntervalHaltingDuration="0.00" maxIntervalHaltingDuration="0.00" intervalHaltingDurationSum="0.00" startedHalts="0.00" meanVehicleNumber="0.00" maxVehicleNumber="0" />
</detector>
