<?xml version="1.0" encoding="UTF-8"?>

<!-- generated on Tue Apr  5 13:44:03 2016 by SUMO Version dev-SVN-r20343
<?xml version="1.0" encoding="UTF-8"?>

<configuration xmlns:xsi="http://www.w3.org/2001/XMLSchema-instance" xsi:noNamespaceSchemaLocation="http://sumo.dlr.de/xsd/sumoConfiguration.xsd">

    <input>
        <net-file value="net.net.xml"/>
        <additional-files value="input_routes.rou.xml,input_additional.add.xml,input_additional2.add.xml"/>
    </input>

    <time>
        <begin value="0"/>
        <end value="1000"/>
    </time>

    <report>
        <xml-validation value="never"/>
        <duration-log.disable value="true"/>
        <no-step-log value="true"/>
    </report>

</configuration>
-->

<detector xmlns:xsi="http://www.w3.org/2001/XMLSchema-instance" xsi:noNamespaceSchemaLocation="http://sumo.dlr.de/xsd/det_e2_file.xsd">
   <interval begin="0.00" end="10.00" id="3/1to2/1" nSamples="0" meanSpeed="-1.00" meanOccupancy="0.00" maxOccupancy="0.00" meanMaxJamLengthInVehicles="0.00" meanMaxJamLengthInMeters="0.00" maxJamLengthInVehicles="0" maxJamLengthInMeters="0.00" jamLengthInVehiclesSum="0" jamLengthInMetersSum="0.00" meanHaltingDuration="0.00" maxHaltingDuration="0.00" haltingDurationSum="0.00" meanIntervalHaltingDuration="0.00" maxIntervalHaltingDuration="0.00" intervalHaltingDurationSum="0.00" startedHalts="0.00" meanVehicleNumber="0.00" maxVehicleNumber="0" />
   <interval begin="10.00" end="20.00" id="3/1to2/1" nSamples="0" meanSpeed="-1.00" meanOccupancy="0.00" maxOccupancy="0.00" meanMaxJamLengthInVehicles="0.00" meanMaxJamLengthInMeters="0.00" maxJamLengthInVehicles="0" maxJamLengthInMeters="0.00" jamLengthInVehiclesSum="0" jamLengthInMetersSum="0.00" meanHaltingDuration="0.00" maxHaltingDuration="0.00" haltingDurationSum="0.00" meanIntervalHaltingDuration="0.00" maxIntervalHaltingDuration="0.00" intervalHaltingDurationSum="0.00" startedHalts="0.00" meanVehicleNumber="0.00" maxVehicleNumber="0" />
   <interval begin="20.00" end="30.00" id="3/1to2/1" nSamples="0" meanSpeed="-1.00" meanOccupancy="0.00" maxOccupancy="0.00" meanMaxJamLengthInVehicles="0.00" meanMaxJamLengthInMeters="0.00" maxJamLengthInVehicles="0" maxJamLengthInMeters="0.00" jamLengthInVehiclesSum="0" jamLengthInMetersSum="0.00" meanHaltingDuration="0.00" maxHaltingDuration="0.00" haltingDurationSum="0.00" meanIntervalHaltingDuration="0.00" maxIntervalHaltingDuration="0.00" intervalHaltingDurationSum="0.00" startedHalts="0.00" meanVehicleNumber="0.00" maxVehicleNumber="0" />
   <interval begin="30.00" end="40.00" id="3/1to2/1" nSamples="0" meanSpeed="-1.00" meanOccupancy="0.00" maxOccupancy="0.00" meanMaxJamLengthInVehicles="0.00" meanMaxJamLengthInMeters="0.00" maxJamLengthInVehicles="0" maxJamLengthInMeters="0.00" jamLengthInVehiclesSum="0" jamLengthInMetersSum="0.00" meanHaltingDuration="0.00" maxHaltingDuration="0.00" haltingDurationSum="0.00" meanIntervalHaltingDuration="0.00" maxIntervalHaltingDuration="0.00" intervalHaltingDurationSum="0.00" startedHalts="0.00" meanVehicleNumber="0.00" maxVehicleNumber="0" />
   <interval begin="40.00" end="50.00" id="3/1to2/1" nSamples="0" meanSpeed="-1.00" meanOccupancy="0.00" maxOccupancy="0.00" meanMaxJamLengthInVehicles="0.00" meanMaxJamLengthInMeters="0.00" maxJamLengthInVehicles="0" maxJamLengthInMeters="0.00" jamLengthInVehiclesSum="0" jamLengthInMetersSum="0.00" meanHaltingDuration="0.00" maxHaltingDuration="0.00" haltingDurationSum="0.00" meanIntervalHaltingDuration="0.00" maxIntervalHaltingDuration="0.00" intervalHaltingDurationSum="0.00" startedHalts="0.00" meanVehicleNumber="0.00" maxVehicleNumber="0" />
   <interval begin="50.00" end="60.00" id="3/1to2/1" nSamples="0" meanSpeed="-1.00" meanOccupancy="0.00" maxOccupancy="0.00" meanMaxJamLengthInVehicles="0.00" meanMaxJamLengthInMeters="0.00" maxJamLengthInVehicles="0" maxJamLengthInMeters="0.00" jamLengthInVehiclesSum="0" jamLengthInMetersSum="0.00" meanHaltingDuration="0.00" maxHaltingDuration="0.00" haltingDurationSum="0.00" meanIntervalHaltingDuration="0.00" maxIntervalHaltingDuration="0.00" intervalHaltingDurationSum="0.00" startedHalts="0.00" meanVehicleNumber="0.00" maxVehicleNumber="0" />
   <interval begin="60.00" end="70.00" id="3/1to2/1" nSamples="13" meanSpeed="9.94" meanOccupancy="4.31" maxOccupancy="6.63" meanMaxJamLengthInVehicles="0.00" meanMaxJamLengthInMeters="0.00" maxJamLengthInVehicles="0" maxJamLengthInMeters="0.00" jamLengthInVehiclesSum="0" jamLengthInMetersSum="0.00" meanHaltingDuration="0.00" maxHaltingDuration="0.00" haltingDurationSum="0.00" meanIntervalHaltingDuration="0.00" maxIntervalHaltingDuration="0.00" intervalHaltingDurationSum="0.00" startedHalts="0.00" meanVehicleNumber="1.30" maxVehicleNumber="2" />
   <interval begin="70.00" end="80.00" id="3/1to2/1" nSamples="19" meanSpeed="9.13" meanOccupancy="5.99" maxOccupancy="6.63" meanMaxJamLengthInVehicles="0.00" meanMaxJamLengthInMeters="0.00" maxJamLengthInVehicles="0" maxJamLengthInMeters="0.00" jamLengthInVehiclesSum="0" jamLengthInMetersSum="0.00" meanHaltingDuration="0.00" maxHaltingDuration="0.00" haltingDurationSum="0.00" meanIntervalHaltingDuration="0.00" maxIntervalHaltingDuration="0.00" intervalHaltingDurationSum="0.00" startedHalts="0.00" meanVehicleNumber="1.90" maxVehicleNumber="2" />
   <interval begin="80.00" end="90.00" id="3/1to2/1" nSamples="33" meanSpeed="4.66" meanOccupancy="10.94" maxOccupancy="13.26" meanMaxJamLengthInVehicles="1.30" meanMaxJamLengthInMeters="6.50" maxJamLengthInVehicles="2" maxJamLengthInMeters="10.00" jamLengthInVehiclesSum="13" jamLengthInMetersSum="65.00" meanHaltingDuration="5.33" maxHaltingDuration="10.00" haltingDurationSum="16.00" meanIntervalHaltingDuration="5.33" maxIntervalHaltingDuration="10.00" intervalHaltingDurationSum="16.00" startedHalts="3.00" meanVehicleNumber="3.30" maxVehicleNumber="4" />
   <interval begin="90.00" end="100.00" id="3/1to2/1" nSamples="53" meanSpeed="2.52" meanOccupancy="17.57" maxOccupancy="19.89" meanMaxJamLengthInVehicles="3.60" meanMaxJamLengthInMeters="18.00" maxJamLengthInVehicles="5" maxJamLengthInMeters="25.00" jamLengthInVehiclesSum="36" jamLengthInMetersSum="180.03" meanHaltingDuration="10.80" maxHaltingDuration="20.00" haltingDurationSum="54.00" meanIntervalHaltingDuration="7.60" maxIntervalHaltingDuration="10.00" intervalHaltingDurationSum="38.00" startedHalts="2.00" meanVehicleNumber="5.30" maxVehicleNumber="6" />
   <interval begin="100.00" end="110.00" id="3/1to2/1" nSamples="73" meanSpeed="1.56" meanOccupancy="24.20" maxOccupancy="26.52" meanMaxJamLengthInVehicles="5.80" meanMaxJamLengthInMeters="29.00" maxJamLengthInVehicles="7" maxJamLengthInMeters="35.01" jamLengthInVehiclesSum="58" jamLengthInMetersSum="290.05" meanHaltingDuration="16.29" maxHaltingDuration="30.00" haltingDurationSum="114.00" meanIntervalHaltingDuration="8.57" maxIntervalHaltingDuration="10.00" intervalHaltingDurationSum="60.00" startedHalts="2.00" meanVehicleNumber="7.30" maxVehicleNumber="8" />
   <interval begin="110.00" end="120.00" id="3/1to2/1" nSamples="80" meanSpeed="0.12" meanOccupancy="26.52" maxOccupancy="26.52" meanMaxJamLengthInVehicles="7.70" meanMaxJamLengthInMeters="38.51" maxJamLengthInVehicles="8" maxJamLengthInMeters="40.01" jamLengthInVehiclesSum="77" jamLengthInMetersSum="385.07" meanHaltingDuration="24.00" maxHaltingDuration="40.00" haltingDurationSum="192.00" meanIntervalHaltingDuration="9.75" maxIntervalHaltingDuration="10.00" intervalHaltingDurationSum="78.00" startedHalts="1.00" meanVehicleNumber="8.00" maxVehicleNumber="8" />
   <interval begin="120.00" end="130.00" id="3/1to2/1" nSamples="80" meanSpeed="0.00" meanOccupancy="26.52" maxOccupancy="26.52" meanMaxJamLengthInVehicles="8.00" meanMaxJamLengthInMeters="40.01" maxJamLengthInVehicles="8" maxJamLengthInMeters="40.01" jamLengthInVehiclesSum="80" jamLengthInMetersSum="400.07" meanHaltingDuration="34.00" maxHaltingDuration="50.00" haltingDurationSum="272.00" meanIntervalHaltingDuration="10.00" maxIntervalHaltingDuration="10.00" intervalHaltingDurationSum="80.00" startedHalts="0.00" meanVehicleNumber="8.00" maxVehicleNumber="8" />
   <interval begin="130.00" end="140.00" id="3/1to2/1" nSamples="80" meanSpeed="0.00" meanOccupancy="26.52" maxOccupancy="26.52" meanMaxJamLengthInVehicles="8.00" meanMaxJamLengthInMeters="40.01" maxJamLengthInVehicles="8" maxJamLengthInMeters="40.01" jamLengthInVehiclesSum="80" jamLengthInMetersSum="400.07" meanHaltingDuration="44.00" maxHaltingDuration="60.00" haltingDurationSum="352.00" meanIntervalHaltingDuration="10.00" maxIntervalHaltingDuration="10.00" intervalHaltingDurationSum="80.00" startedHalts="0.00" meanVehicleNumber="8.00" maxVehicleNumber="8" />
   <interval begin="140.00" end="150.00" id="3/1to2/1" nSamples="80" meanSpeed="0.00" meanOccupancy="26.52" maxOccupancy="26.52" meanMaxJamLengthInVehicles="8.00" meanMaxJamLengthInMeters="40.01" maxJamLengthInVehicles="8" maxJamLengthInMeters="40.01" jamLengthInVehiclesSum="80" jamLengthInMetersSum="400.07" meanHaltingDuration="54.00" maxHaltingDuration="70.00" haltingDurationSum="432.00" meanIntervalHaltingDuration="10.00" maxIntervalHaltingDuration="10.00" intervalHaltingDurationSum="80.00" startedHalts="0.00" meanVehicleNumber="8.00" maxVehicleNumber="8" />
   <interval begin="150.00" end="160.00" id="3/1to2/1" nSamples="80" meanSpeed="0.00" meanOccupancy="26.52" maxOccupancy="26.52" meanMaxJamLengthInVehicles="8.00" meanMaxJamLengthInMeters="40.01" maxJamLengthInVehicles="8" maxJamLengthInMeters="40.01" jamLengthInVehiclesSum="80" jamLengthInMetersSum="400.07" meanHaltingDuration="64.00" maxHaltingDuration="80.00" haltingDurationSum="512.00" meanIntervalHaltingDuration="10.00" maxIntervalHaltingDuration="10.00" intervalHaltingDurationSum="80.00" startedHalts="0.00" meanVehicleNumber="8.00" maxVehicleNumber="8" />
   <interval begin="160.00" end="170.00" id="3/1to2/1" nSamples="80" meanSpeed="0.00" meanOccupancy="26.52" maxOccupancy="26.52" meanMaxJamLengthInVehicles="8.00" meanMaxJamLengthInMeters="40.01" maxJamLengthInVehicles="8" maxJamLengthInMeters="40.01" jamLengthInVehiclesSum="80" jamLengthInMetersSum="400.07" meanHaltingDuration="74.00" maxHaltingDuration="90.00" haltingDurationSum="592.00" meanIntervalHaltingDuration="10.00" maxIntervalHaltingDuration="10.00" intervalHaltingDurationSum="80.00" startedHalts="0.00" meanVehicleNumber="8.00" maxVehicleNumber="8" />
   <interval begin="170.00" end="180.00" id="3/1to2/1" nSamples="80" meanSpeed="0.00" meanOccupancy="26.52" maxOccupancy="26.52" meanMaxJamLengthInVehicles="8.00" meanMaxJamLengthInMeters="40.01" maxJamLengthInVehicles="8" maxJamLengthInMeters="40.01" jamLengthInVehiclesSum="80" jamLengthInMetersSum="400.07" meanHaltingDuration="84.00" maxHaltingDuration="100.00" haltingDurationSum="672.00" meanIntervalHaltingDuration="10.00" maxIntervalHaltingDuration="10.00" intervalHaltingDurationSum="80.00" startedHalts="0.00" meanVehicleNumber="8.00" maxVehicleNumber="8" />
   <interval begin="180.00" end="190.00" id="3/1to2/1" nSamples="80" meanSpeed="0.00" meanOccupancy="26.52" maxOccupancy="26.52" meanMaxJamLengthInVehicles="8.00" meanMaxJamLengthInMeters="40.01" maxJamLengthInVehicles="8" maxJamLengthInMeters="40.01" jamLengthInVehiclesSum="80" jamLengthInMetersSum="400.07" meanHaltingDuration="94.00" maxHaltingDuration="110.00" haltingDurationSum="752.00" meanIntervalHaltingDuration="10.00" maxIntervalHaltingDuration="10.00" intervalHaltingDurationSum="80.00" startedHalts="0.00" meanVehicleNumber="8.00" maxVehicleNumber="8" />
   <interval begin="190.00" end="200.00" id="3/1to2/1" nSamples="80" meanSpeed="0.00" meanOccupancy="26.52" maxOccupancy="26.52" meanMaxJamLengthInVehicles="8.00" meanMaxJamLengthInMeters="40.01" maxJamLengthInVehicles="8" maxJamLengthInMeters="40.01" jamLengthInVehiclesSum="80" jamLengthInMetersSum="400.07" meanHaltingDuration="104.00" maxHaltingDuration="120.00" haltingDurationSum="832.00" meanIntervalHaltingDuration="10.00" maxIntervalHaltingDuration="10.00" intervalHaltingDurationSum="80.00" startedHalts="0.00" meanVehicleNumber="8.00" maxVehicleNumber="8" />
   <interval begin="200.00" end="210.00" id="3/1to2/1" nSamples="80" meanSpeed="0.00" meanOccupancy="26.52" maxOccupancy="26.52" meanMaxJamLengthInVehicles="8.00" meanMaxJamLengthInMeters="40.01" maxJamLengthInVehicles="8" maxJamLengthInMeters="40.01" jamLengthInVehiclesSum="80" jamLengthInMetersSum="400.07" meanHaltingDuration="114.00" maxHaltingDuration="130.00" haltingDurationSum="912.00" meanIntervalHaltingDuration="10.00" maxIntervalHaltingDuration="10.00" intervalHaltingDurationSum="80.00" startedHalts="0.00" meanVehicleNumber="8.00" maxVehicleNumber="8" />
   <interval begin="210.00" end="220.00" id="3/1to2/1" nSamples="80" meanSpeed="0.00" meanOccupancy="26.52" maxOccupancy="26.52" meanMaxJamLengthInVehicles="8.00" meanMaxJamLengthInMeters="40.01" maxJamLengthInVehicles="8" maxJamLengthInMeters="40.01" jamLengthInVehiclesSum="80" jamLengthInMetersSum="400.07" meanHaltingDuration="124.00" maxHaltingDuration="140.00" haltingDurationSum="992.00" meanIntervalHaltingDuration="10.00" maxIntervalHaltingDuration="10.00" intervalHaltingDurationSum="80.00" startedHalts="0.00" meanVehicleNumber="8.00" maxVehicleNumber="8" />
   <interval begin="220.00" end="230.00" id="3/1to2/1" nSamples="80" meanSpeed="0.00" meanOccupancy="26.52" maxOccupancy="26.52" meanMaxJamLengthInVehicles="8.00" meanMaxJamLengthInMeters="40.01" maxJamLengthInVehicles="8" maxJamLengthInMeters="40.01" jamLengthInVehiclesSum="80" jamLengthInMetersSum="400.07" meanHaltingDuration="134.00" maxHaltingDuration="150.00" haltingDurationSum="1072.00" meanIntervalHaltingDuration="10.00" maxIntervalHaltingDuration="10.00" intervalHaltingDurationSum="80.00" startedHalts="0.00" meanVehicleNumber="8.00" maxVehicleNumber="8" />
   <interval begin="230.00" end="240.00" id="3/1to2/1" nSamples="80" meanSpeed="0.00" meanOccupancy="26.52" maxOccupancy="26.52" meanMaxJamLengthInVehicles="8.00" meanMaxJamLengthInMeters="40.01" maxJamLengthInVehicles="8" maxJamLengthInMeters="40.01" jamLengthInVehiclesSum="80" jamLengthInMetersSum="400.07" meanHaltingDuration="144.00" maxHaltingDuration="160.00" haltingDurationSum="1152.00" meanIntervalHaltingDuration="10.00" maxIntervalHaltingDuration="10.00" intervalHaltingDurationSum="80.00" startedHalts="0.00" meanVehicleNumber="8.00" maxVehicleNumber="8" />
   <interval begin="240.00" end="250.00" id="3/1to2/1" nSamples="80" meanSpeed="0.00" meanOccupancy="26.52" maxOccupancy="26.52" meanMaxJamLengthInVehicles="8.00" meanMaxJamLengthInMeters="40.01" maxJamLengthInVehicles="8" maxJamLengthInMeters="40.01" jamLengthInVehiclesSum="80" jamLengthInMetersSum="400.07" meanHaltingDuration="154.00" maxHaltingDuration="170.00" haltingDurationSum="1232.00" meanIntervalHaltingDuration="10.00" maxIntervalHaltingDuration="10.00" intervalHaltingDurationSum="80.00" startedHalts="0.00" meanVehicleNumber="8.00" maxVehicleNumber="8" />
   <interval begin="250.00" end="260.00" id="3/1to2/1" nSamples="80" meanSpeed="0.00" meanOccupancy="26.52" maxOccupancy="26.52" meanMaxJamLengthInVehicles="8.00" meanMaxJamLengthInMeters="40.01" maxJamLengthInVehicles="8" maxJamLengthInMeters="40.01" jamLengthInVehiclesSum="80" jamLengthInMetersSum="400.07" meanHaltingDuration="164.00" maxHaltingDuration="180.00" haltingDurationSum="1312.00" meanIntervalHaltingDuration="10.00" maxIntervalHaltingDuration="10.00" intervalHaltingDurationSum="80.00" startedHalts="0.00" meanVehicleNumber="8.00" maxVehicleNumber="8" />
   <interval begin="260.00" end="270.00" id="3/1to2/1" nSamples="80" meanSpeed="0.00" meanOccupancy="26.52" maxOccupancy="26.52" meanMaxJamLengthInVehicles="8.00" meanMaxJamLengthInMeters="40.01" maxJamLengthInVehicles="8" maxJamLengthInMeters="40.01" jamLengthInVehiclesSum="80" jamLengthInMetersSum="400.07" meanHaltingDuration="174.00" maxHaltingDuration="190.00" haltingDurationSum="1392.00" meanIntervalHaltingDuration="10.00" maxIntervalHaltingDuration="10.00" intervalHaltingDurationSum="80.00" startedHalts="0.00" meanVehicleNumber="8.00" maxVehicleNumber="8" />
   <interval begin="270.00" end="280.00" id="3/1to2/1" nSamples="80" meanSpeed="0.00" meanOccupancy="26.52" maxOccupancy="26.52" meanMaxJamLengthInVehicles="8.00" meanMaxJamLengthInMeters="40.01" maxJamLengthInVehicles="8" maxJamLengthInMeters="40.01" jamLengthInVehiclesSum="80" jamLengthInMetersSum="400.07" meanHaltingDuration="184.00" maxHaltingDuration="200.00" haltingDurationSum="1472.00" meanIntervalHaltingDuration="10.00" maxIntervalHaltingDuration="10.00" intervalHaltingDurationSum="80.00" startedHalts="0.00" meanVehicleNumber="8.00" maxVehicleNumber="8" />
   <interval begin="280.00" end="290.00" id="3/1to2/1" nSamples="80" meanSpeed="0.00" meanOccupancy="26.52" maxOccupancy="26.52" meanMaxJamLengthInVehicles="8.00" meanMaxJamLengthInMeters="40.01" maxJamLengthInVehicles="8" maxJamLengthInMeters="40.01" jamLengthInVehiclesSum="80" jamLengthInMetersSum="400.07" meanHaltingDuration="194.00" maxHaltingDuration="210.00" haltingDurationSum="1552.00" meanIntervalHaltingDuration="10.00" maxIntervalHaltingDuration="10.00" intervalHaltingDurationSum="80.00" startedHalts="0.00" meanVehicleNumber="8.00" maxVehicleNumber="8" />
   <interval begin="290.00" end="300.00" id="3/1to2/1" nSamples="80" meanSpeed="0.00" meanOccupancy="26.52" maxOccupancy="26.52" meanMaxJamLengthInVehicles="8.00" meanMaxJamLengthInMeters="40.01" maxJamLengthInVehicles="8" maxJamLengthInMeters="40.01" jamLengthInVehiclesSum="80" jamLengthInMetersSum="400.07" meanHaltingDuration="204.00" maxHaltingDuration="220.00" haltingDurationSum="1632.00" meanIntervalHaltingDuration="10.00" maxIntervalHaltingDuration="10.00" intervalHaltingDurationSum="80.00" startedHalts="0.00" meanVehicleNumber="8.00" maxVehicleNumber="8" />
   <interval begin="300.00" end="310.00" id="3/1to2/1" nSamples="72" meanSpeed="0.80" meanOccupancy="23.31" maxOccupancy="26.52" meanMaxJamLengthInVehicles="5.20" meanMaxJamLengthInMeters="26.28" maxJamLengthInVehicles="8" maxJamLengthInMeters="40.41" jamLengthInVehiclesSum="52" jamLengthInMetersSum="262.84" meanHaltingDuration="210.50" maxHaltingDuration="223.00" haltingDurationSum="1684.00" meanIntervalHaltingDuration="6.50" maxIntervalHaltingDuration="10.00" intervalHaltingDurationSum="52.00" startedHalts="0.00" meanVehicleNumber="7.20" maxVehicleNumber="8" />
   <interval begin="310.00" end="320.00" id="3/1to2/1" nSamples="24" meanSpeed="4.67" meanOccupancy="7.86" maxOccupancy="16.57" meanMaxJamLengthInVehicles="0.00" meanMaxJamLengthInMeters="0.00" maxJamLengthInVehicles="0" maxJamLengthInMeters="0.00" jamLengthInVehiclesSum="0" jamLengthInMetersSum="0.00" meanHaltingDuration="198.00" maxHaltingDuration="198.00" haltingDurationSum="198.00" meanIntervalHaltingDuration="0.00" maxIntervalHaltingDuration="0.00" intervalHaltingDurationSum="0.00" startedHalts="0.00" meanVehicleNumber="2.40" maxVehicleNumber="5" />
   <interval begin="320.00" end="330.00" id="3/1to2/1" nSamples="0" meanSpeed="-1.00" meanOccupancy="0.00" maxOccupancy="0.00" meanMaxJamLengthInVehicles="0.00" meanMaxJamLengthInMeters="0.00" maxJamLengthInVehicles="0" maxJamLengthInMeters="0.00" jamLengthInVehiclesSum="0" jamLengthInMetersSum="0.00" meanHaltingDuration="0.00" maxHaltingDuration="0.00" haltingDurationSum="0.00" meanIntervalHaltingDuration="0.00" maxIntervalHaltingDuration="0.00" intervalHaltingDurationSum="0.00" startedHalts="0.00" meanVehicleNumber="0.00" maxVehicleNumber="0" />
   <interval begin="330.00" end="340.00" id="3/1to2/1" nSamples="0" meanSpeed="-1.00" meanOccupancy="0.00" maxOccupancy="0.00" meanMaxJamLengthInVehicles="0.00" meanMaxJamLengthInMeters="0.00" maxJamLengthInVehicles="0" maxJamLengthInMeters="0.00" jamLengthInVehiclesSum="0" jamLengthInMetersSum="0.00" meanHaltingDuration="0.00" maxHaltingDuration="0.00" haltingDurationSum="0.00" meanIntervalHaltingDuration="0.00" maxIntervalHaltingDuration="0.00" intervalHaltingDurationSum="0.00" startedHalts="0.00" meanVehicleNumber="0.00" maxVehicleNumber="0" />
   <interval begin="340.00" end="350.00" id="3/1to2/1" nSamples="0" meanSpeed="-1.00" meanOccupancy="0.00" maxOccupancy="0.00" meanMaxJamLengthInVehicles="0.00" meanMaxJamLengthInMeters="0.00" maxJamLengthInVehicles="0" maxJamLengthInMeters="0.00" jamLengthInVehiclesSum="0" jamLengthInMetersSum="0.00" meanHaltingDuration="0.00" maxHaltingDuration="0.00" haltingDurationSum="0.00" meanIntervalHaltingDuration="0.00" maxIntervalHaltingDuration="0.00" intervalHaltingDurationSum="0.00" startedHalts="0.00" meanVehicleNumber="0.00" maxVehicleNumber="0" />
   <interval begin="350.00" end="360.00" id="3/1to2/1" nSamples="0" meanSpeed="-1.00" meanOccupancy="0.00" maxOccupancy="0.00" meanMaxJamLengthInVehicles="0.00" meanMaxJamLengthInMeters="0.00" maxJamLengthInVehicles="0" maxJamLengthInMeters="0.00" jamLengthInVehiclesSum="0" jamLengthInMetersSum="0.00" meanHaltingDuration="0.00" maxHaltingDuration="0.00" haltingDurationSum="0.00" meanIntervalHaltingDuration="0.00" maxIntervalHaltingDuration="0.00" intervalHaltingDurationSum="0.00" startedHalts="0.00" meanVehicleNumber="0.00" maxVehicleNumber="0" />
   <interval begin="360.00" end="370.00" id="3/1to2/1" nSamples="0" meanSpeed="-1.00" meanOccupancy="0.00" maxOccupancy="0.00" meanMaxJamLengthInVehicles="0.00" meanMaxJamLengthInMeters="0.00" maxJamLengthInVehicles="0" maxJamLengthInMeters="0.00" jamLengthInVehiclesSum="0" jamLengthInMetersSum="0.00" meanHaltingDuration="0.00" maxHaltingDuration="0.00" haltingDurationSum="0.00" meanIntervalHaltingDuration="0.00" maxIntervalHaltingDuration="0.00" intervalHaltingDurationSum="0.00" startedHalts="0.00" meanVehicleNumber="0.00" maxVehicleNumber="0" />
   <interval begin="370.00" end="380.00" id="3/1to2/1" nSamples="0" meanSpeed="-1.00" meanOccupancy="0.00" maxOccupancy="0.00" meanMaxJamLengthInVehicles="0.00" meanMaxJamLengthInMeters="0.00" maxJamLengthInVehicles="0" maxJamLengthInMeters="0.00" jamLengthInVehiclesSum="0" jamLengthInMetersSum="0.00" meanHaltingDuration="0.00" maxHaltingDuration="0.00" haltingDurationSum="0.00" meanIntervalHaltingDuration="0.00" maxIntervalHaltingDuration="0.00" intervalHaltingDurationSum="0.00" startedHalts="0.00" meanVehicleNumber="0.00" maxVehicleNumber="0" />
   <interval begin="380.00" end="390.00" id="3/1to2/1" nSamples="0" meanSpeed="-1.00" meanOccupancy="0.00" maxOccupancy="0.00" meanMaxJamLengthInVehicles="0.00" meanMaxJamLengthInMeters="0.00" maxJamLengthInVehicles="0" maxJamLengthInMeters="0.00" jamLengthInVehiclesSum="0" jamLengthInMetersSum="0.00" meanHaltingDuration="0.00" maxHaltingDuration="0.00" haltingDurationSum="0.00" meanIntervalHaltingDuration="0.00" maxIntervalHaltingDuration="0.00" intervalHaltingDurationSum="0.00" startedHalts="0.00" meanVehicleNumber="0.00" maxVehicleNumber="0" />
   <interval begin="390.00" end="400.00" id="3/1to2/1" nSamples="0" meanSpeed="-1.00" meanOccupancy="0.00" maxOccupancy="0.00" meanMaxJamLengthInVehicles="0.00" meanMaxJamLengthInMeters="0.00" maxJamLengthInVehicles="0" maxJamLengthInMeters="0.00" jamLengthInVehiclesSum="0" jamLengthInMetersSum="0.00" meanHaltingDuration="0.00" maxHaltingDuration="0.00" haltingDurationSum="0.00" meanIntervalHaltingDuration="0.00" maxIntervalHaltingDuration="0.00" intervalHaltingDurationSum="0.00" startedHalts="0.00" meanVehicleNumber="0.00" maxVehicleNumber="0" />
   <interval begin="400.00" end="410.00" id="3/1to2/1" nSamples="0" meanSpeed="-1.00" meanOccupancy="0.00" maxOccupancy="0.00" meanMaxJamLengthInVehicles="0.00" meanMaxJamLengthInMeters="0.00" maxJamLengthInVehicles="0" maxJamLengthInMeters="0.00" jamLengthInVehiclesSum="0" jamLengthInMetersSum="0.00" meanHaltingDuration="0.00" maxHaltingDuration="0.00" haltingDurationSum="0.00" meanIntervalHaltingDuration="0.00" maxIntervalHaltingDuration="0.00" intervalHaltingDurationSum="0.00" startedHalts="0.00" meanVehicleNumber="0.00" maxVehicleNumber="0" />
   <interval begin="410.00" end="420.00" id="3/1to2/1" nSamples="0" meanSpeed="-1.00" meanOccupancy="0.00" maxOccupancy="0.00" meanMaxJamLengthInVehicles="0.00" meanMaxJamLengthInMeters="0.00" maxJamLengthInVehicles="0" maxJamLengthInMeters="0.00" jamLengthInVehiclesSum="0" jamLengthInMetersSum="0.00" meanHaltingDuration="0.00" maxHaltingDuration="0.00" haltingDurationSum="0.00" meanIntervalHaltingDuration="0.00" maxIntervalHaltingDuration="0.00" intervalHaltingDurationSum="0.00" startedHalts="0.00" meanVehicleNumber="0.00" maxVehicleNumber="0" />
   <interval begin="420.00" end="430.00" id="3/1to2/1" nSamples="0" meanSpeed="-1.00" meanOccupancy="0.00" maxOccupancy="0.00" meanMaxJamLengthInVehicles="0.00" meanMaxJamLengthInMeters="0.00" maxJamLengthInVehicles="0" maxJamLengthInMeters="0.00" jamLengthInVehiclesSum="0" jamLengthInMetersSum="0.00" meanHaltingDuration="0.00" maxHaltingDuration="0.00" haltingDurationSum="0.00" meanIntervalHaltingDuration="0.00" maxIntervalHaltingDuration="0.00" intervalHaltingDurationSum="0.00" startedHalts="0.00" meanVehicleNumber="0.00" maxVehicleNumber="0" />
   <interval begin="430.00" end="440.00" id="3/1to2/1" nSamples="0" meanSpeed="-1.00" meanOccupancy="0.00" maxOccupancy="0.00" meanMaxJamLengthInVehicles="0.00" meanMaxJamLengthInMeters="0.00" maxJamLengthInVehicles="0" maxJamLengthInMeters="0.00" jamLengthInVehiclesSum="0" jamLengthInMetersSum="0.00" meanHaltingDuration="0.00" maxHaltingDuration="0.00" haltingDurationSum="0.00" meanIntervalHaltingDuration="0.00" maxIntervalHaltingDuration="0.00" intervalHaltingDurationSum="0.00" startedHalts="0.00" meanVehicleNumber="0.00" maxVehicleNumber="0" />
   <interval begin="440.00" end="450.00" id="3/1to2/1" nSamples="0" meanSpeed="-1.00" meanOccupancy="0.00" maxOccupancy="0.00" meanMaxJamLengthInVehicles="0.00" meanMaxJamLengthInMeters="0.00" maxJamLengthInVehicles="0" maxJamLengthInMeters="0.00" jamLengthInVehiclesSum="0" jamLengthInMetersSum="0.00" meanHaltingDuration="0.00" maxHaltingDuration="0.00" haltingDurationSum="0.00" meanIntervalHaltingDuration="0.00" maxIntervalHaltingDuration="0.00" intervalHaltingDurationSum="0.00" startedHalts="0.00" meanVehicleNumber="0.00" maxVehicleNumber="0" />
   <interval begin="450.00" end="460.00" id="3/1to2/1" nSamples="0" meanSpeed="-1.00" meanOccupancy="0.00" maxOccupancy="0.00" meanMaxJamLengthInVehicles="0.00" meanMaxJamLengthInMeters="0.00" maxJamLengthInVehicles="0" maxJamLengthInMeters="0.00" jamLengthInVehiclesSum="0" jamLengthInMetersSum="0.00" meanHaltingDuration="0.00" maxHaltingDuration="0.00" haltingDurationSum="0.00" meanIntervalHaltingDuration="0.00" maxIntervalHaltingDuration="0.00" intervalHaltingDurationSum="0.00" startedHalts="0.00" meanVehicleNumber="0.00" maxVehicleNumber="0" />
   <interval begin="460.00" end="470.00" id="3/1to2/1" nSamples="0" meanSpeed="-1.00" meanOccupancy="0.00" maxOccupancy="0.00" meanMaxJamLengthInVehicles="0.00" meanMaxJamLengthInMeters="0.00" maxJamLengthInVehicles="0" maxJamLengthInMeters="0.00" jamLengthInVehiclesSum="0" jamLengthInMetersSum="0.00" meanHaltingDuration="0.00" maxHaltingDuration="0.00" haltingDurationSum="0.00" meanIntervalHaltingDuration="0.00" maxIntervalHaltingDuration="0.00" intervalHaltingDurationSum="0.00" startedHalts="0.00" meanVehicleNumber="0.00" maxVehicleNumber="0" />
   <interval begin="470.00" end="480.00" id="3/1to2/1" nSamples="0" meanSpeed="-1.00" meanOccupancy="0.00" maxOccupancy="0.00" meanMaxJamLengthInVehicles="0.00" meanMaxJamLengthInMeters="0.00" maxJamLengthInVehicles="0" maxJamLengthInMeters="0.00" jamLengthInVehiclesSum="0" jamLengthInMetersSum="0.00" meanHaltingDuration="0.00" maxHaltingDuration="0.00" haltingDurationSum="0.00" meanIntervalHaltingDuration="0.00" maxIntervalHaltingDuration="0.00" intervalHaltingDurationSum="0.00" startedHalts="0.00" meanVehicleNumber="0.00" maxVehicleNumber="0" />
   <interval begin="480.00" end="490.00" id="3/1to2/1" nSamples="0" meanSpeed="-1.00" meanOccupancy="0.00" maxOccupancy="0.00" meanMaxJamLengthInVehicles="0.00" meanMaxJamLengthInMeters="0.00" maxJamLengthInVehicles="0" maxJamLengthInMeters="0.00" jamLengthInVehiclesSum="0" jamLengthInMetersSum="0.00" meanHaltingDuration="0.00" maxHaltingDuration="0.00" haltingDurationSum="0.00" meanIntervalHaltingDuration="0.00" maxIntervalHaltingDuration="0.00" intervalHaltingDurationSum="0.00" startedHalts="0.00" meanVehicleNumber="0.00" maxVehicleNumber="0" />
   <interval begin="490.00" end="500.00" id="3/1to2/1" nSamples="0" meanSpeed="-1.00" meanOccupancy="0.00" maxOccupancy="0.00" meanMaxJamLengthInVehicles="0.00" meanMaxJamLengthInMeters="0.00" maxJamLengthInVehicles="0" maxJamLengthInMeters="0.00" jamLengthInVehiclesSum="0" jamLengthInMetersSum="0.00" meanHaltingDuration="0.00" maxHaltingDuration="0.00" haltingDurationSum="0.00" meanIntervalHaltingDuration="0.00" maxIntervalHaltingDuration="0.00" intervalHaltingDurationSum="0.00" startedHalts="0.00" meanVehicleNumber="0.00" maxVehicleNumber="0" />
   <interval begin="500.00" end="510.00" id="3/1to2/1" nSamples="0" meanSpeed="-1.00" meanOccupancy="0.00" maxOccupancy="0.00" meanMaxJamLengthInVehicles="0.00" meanMaxJamLengthInMeters="0.00" maxJamLengthInVehicles="0" maxJamLengthInMeters="0.00" jamLengthInVehiclesSum="0" jamLengthInMetersSum="0.00" meanHaltingDuration="0.00" maxHaltingDuration="0.00" haltingDurationSum="0.00" meanIntervalHaltingDuration="0.00" maxIntervalHaltingDuration="0.00" intervalHaltingDurationSum="0.00" startedHalts="0.00" meanVehicleNumber="0.00" maxVehicleNumber="0" />