<?xml version="1.0" encoding="UTF-8"?>

<!-- generated on Tue Apr  5 13:44:52 2016 by SUMO Version dev-SVN-r20343
<?xml version="1.0" encoding="UTF-8"?>

<configuration xmlns:xsi="http://www.w3.org/2001/XMLSchema-instance" xsi:noNamespaceSchemaLocation="http://sumo.dlr.de/xsd/sumoConfiguration.xsd">

    <input>
        <net-file value="net.net.xml"/>
        <route-files value="input_routes.rou.xml"/>
        <additional-files value="input_additional.add.xml,input_additional2.add.xml"/>
    </input>

    <time>
        <begin value="0"/>
        <end value="1000"/>
    </time>

    <report>
        <xml-validation value="never"/>
        <duration-log.disable value="true"/>
        <no-step-log value="true"/>
    </report>

</configuration>
-->

<meandata xmlns:xsi="http://www.w3.org/2001/XMLSchema-instance" xsi:noNamespaceSchemaLocation="http://sumo.dlr.de/xsd/meandata_file.xsd">
    <interval begin="0.00" end="25.00" id="dump_25">
        <edge id="beg" sampledSeconds="42.00" traveltime="26.56" density="3.37" occupancy="1.01" waitingTime="0.00" speed="18.77" departed="3" arrived="0" entered="0" left="1" laneChangedFrom="0" laneChangedTo="0"/>
    </interval>
    <interval begin="25.00" end="50.00" id="dump_25">
        <edge id="beg" sampledSeconds="58.23" traveltime="23.24" density="4.67" occupancy="1.40" waitingTime="0.00" speed="21.45" departed="2" arrived="0" entered="0" left="2" laneChangedFrom="0" laneChangedTo="0"/>
        <edge id="middle" sampledSeconds="44.13" traveltime="71.26" density="1.78" occupancy="0.53" waitingTime="0.00" speed="13.90" departed="0" arrived="0" entered="3" left="0" laneChangedFrom="0" laneChangedTo="0"/>
    </interval>
    <interval begin="50.00" end="75.00" id="dump_25">
        <edge id="beg" sampledSeconds="62.15" traveltime="23.91" density="4.99" occupancy="1.50" waitingTime="0.00" speed="20.86" departed="3" arrived="0" entered="0" left="3" laneChangedFrom="0" laneChangedTo="0"/>
        <edge id="middle" sampledSeconds="104.42" traveltime="71.26" density="4.22" occupancy="1.27" waitingTime="0.00" speed="13.90" departed="0" arrived="0" entered="2" left="0" laneChangedFrom="0" laneChangedTo="0"/>
    </interval>
    <interval begin="75.00" end="100.00" id="dump_25">
        <edge id="beg" sampledSeconds="58.23" traveltime="23.24" density="4.67" occupancy="1.40" waitingTime="0.00" speed="21.45" departed="2" arrived="0" entered="0" left="2" laneChangedFrom="0" laneChangedTo="0"/>
        <edge id="end" sampledSeconds="1.65" traveltime="43.10" density="0.13" occupancy="0.04" waitingTime="0.00" speed="11.57" departed="0" arrived="0" entered="1" left="0" laneChangedFrom="0" laneChangedTo="0"/>
        <edge id="middle" sampledSeconds="167.07" traveltime="71.88" density="6.75" occupancy="2.02" waitingTime="0.00" speed="13.78" departed="0" arrived="0" entered="3" left="1" laneChangedFrom="0" laneChangedTo="0"/>
    </interval>
    <interval begin="100.00" end="125.00" id="dump_25">
        <edge id="beg" sampledSeconds="64.62" traveltime="25.29" density="5.18" occupancy="1.56" waitingTime="0.00" speed="19.72" departed="3" arrived="0" entered="0" left="2" laneChangedFrom="0" laneChangedTo="0"/>
        <edge id="end" sampledSeconds="19.03" traveltime="19.28" density="1.53" occupancy="0.46" waitingTime="0.00" speed="25.85" departed="0" arrived="0" entered="0" left="1" laneChangedFrom="0" laneChangedTo="0"/>
        <edge id="middle" sampledSeconds="200.94" traveltime="319.20" density="8.11" occupancy="2.43" waitingTime="0.00" speed="3.10" departed="0" arrived="0" entered="2" left="0" laneChangedFrom="0" laneChangedTo="0"/>
        <edge id="rend" sampledSeconds="6.08" traveltime="17.99" density="0.49" occupancy="0.15" waitingTime="0.00" speed="27.80" departed="0" arrived="0" entered="1" left="0" laneChangedFrom="0" laneChangedTo="0"/>
    </interval>
    <interval begin="125.00" end="150.00" id="dump_25">
        <edge id="beg" sampledSeconds="61.92" traveltime="24.77" density="4.97" occupancy="1.49" waitingTime="0.00" speed="20.13" departed="2" arrived="0" entered="0" left="3" laneChangedFrom="0" laneChangedTo="0"/>
        <edge id="end" sampledSeconds="20.98" traveltime="21.00" density="1.68" occupancy="0.50" waitingTime="0.00" speed="23.74" departed="0" arrived="0" entered="1" left="0" laneChangedFrom="0" laneChangedTo="0"/>
        <edge id="middle" sampledSeconds="242.23" traveltime="353.32" density="9.78" occupancy="2.93" waitingTime="0.00" speed="2.80" departed="0" arrived="0" entered="3" left="1" laneChangedFrom="0" laneChangedTo="0"/>
        <edge id="rend" sampledSeconds="12.00" traveltime="17.99" density="0.96" occupancy="0.29" waitingTime="0.00" speed="27.80" departed="0" arrived="1" entered="0" left="0" laneChangedFrom="0" laneChangedTo="0"/>
    </interval>
    <interval begin="150.00" end="175.00" id="dump_25">
        <edge id="beg" sampledSeconds="64.62" traveltime="25.29" density="5.18" occupancy="1.56" waitingTime="0.00" speed="19.72" departed="3" arrived="0" entered="0" left="2" laneChangedFrom="0" laneChangedTo="0"/>
        <edge id="end" sampledSeconds="0.50" traveltime="17.93" density="0.04" occupancy="0.01" waitingTime="0.00" speed="27.80" departed="0" arrived="0" entered="0" left="1" laneChangedFrom="0" laneChangedTo="0"/>
        <edge id="middle" sampledSeconds="300.94" traveltime="353.75" density="12.15" occupancy="3.65" waitingTime="0.00" speed="2.80" departed="0" arrived="0" entered="2" left="0" laneChangedFrom="0" laneChangedTo="0"/>
        <edge id="rend" sampledSeconds="18.08" traveltime="17.99" density="1.45" occupancy="0.43" waitingTime="0.00" speed="27.80" departed="0" arrived="1" entered="1" left="0" laneChangedFrom="0" laneChangedTo="0"/>
    </interval>
    <interval begin="175.00" end="200.00" id="dump_25">
        <edge id="beg" sampledSeconds="61.92" traveltime="24.77" density="4.97" occupancy="1.49" waitingTime="0.00" speed="20.13" departed="2" arrived="0" entered="0" left="3" laneChangedFrom="0" laneChangedTo="0"/>
        <edge id="end" sampledSeconds="21.23" traveltime="20.71" density="1.70" occupancy="0.51" waitingTime="0.00" speed="24.08" departed="0" arrived="0" entered="1" left="1" laneChangedFrom="0" laneChangedTo="0"/>
        <edge id="middle" sampledSeconds="341.66" traveltime="353.03" density="13.80" occupancy="4.14" waitingTime="0.00" speed="2.81" departed="0" arrived="0" entered="3" left="1" laneChangedFrom="0" laneChangedTo="0"/>
        <edge id="rend" sampledSeconds="0.51" traveltime="17.99" density="0.04" occupancy="0.01" waitingTime="0.00" speed="27.80" departed="0" arrived="0" entered="1" left="0" laneChangedFrom="0" laneChangedTo="0"/>
    </interval>
    <interval begin="200.00" end="225.00" id="dump_25">
        <edge id="beg" sampledSeconds="61.04" traveltime="23.30" density="4.90" occupancy="1.47" waitingTime="0.00" speed="21.40" departed="3" arrived="0" entered="0" left="3" laneChangedFrom="0" laneChangedTo="0"/>
        <edge id="end" sampledSeconds="30.17" traveltime="24.02" density="2.42" occupancy="0.73" waitingTime="0.00" speed="20.76" departed="0" arrived="0" entered="4" left="0" laneChangedFrom="0" laneChangedTo="0"/>
        <edge id="middle" sampledSeconds="373.37" traveltime="39.26" density="15.08" occupancy="4.52" waitingTime="0.00" speed="25.23" departed="0" arrived="0" entered="3" left="4" laneChangedFrom="0" laneChangedTo="0"/>
        <edge id="rend" sampledSeconds="17.50" traveltime="17.99" density="1.40" occupancy="0.42" waitingTime="0.00" speed="27.80" departed="0" arrived="1" entered="0" left="0" laneChangedFrom="0" laneChangedTo="0"/>
    </interval>
    <interval begin="225.00" end="250.00" id="dump_25">
        <edge id="beg" sampledSeconds="57.22" traveltime="22.75" density="4.59" occupancy="1.38" waitingTime="0.00" speed="21.92" departed="2" arrived="0" entered="0" left="2" laneChangedFrom="0" laneChangedTo="0"/>
        <edge id="end" sampledSeconds="180.74" traveltime="20.98" density="14.50" occupancy="4.35" waitingTime="0.00" speed="23.77" departed="0" arrived="0" entered="11" left="5" laneChangedFrom="0" laneChangedTo="0"/>
        <edge id="middle" sampledSeconds="236.84" traveltime="50.79" density="9.56" occupancy="2.87" waitingTime="0.00" speed="19.50" departed="0" arrived="0" entered="2" left="12" laneChangedFrom="0" laneChangedTo="0"/>
        <edge id="rend" sampledSeconds="47.73" traveltime="17.99" density="3.82" occupancy="1.15" waitingTime="0.00" speed="27.80" departed="0" arrived="1" entered="5" left="0" laneChangedFrom="0" laneChangedTo="0"/>
    </interval>
    <interval begin="250.00" end="275.00" id="dump_25">
        <edge id="beg" sampledSeconds="60.84" traveltime="23.22" density="4.88" occupancy="1.46" waitingTime="0.00" speed="21.47" departed="3" arrived="0" entered="0" left="3" laneChangedFrom="0" laneChangedTo="0"/>
        <edge id="end" sampledSeconds="172.55" traveltime="19.19" density="13.84" occupancy="4.15" waitingTime="0.00" speed="25.98" departed="0" arrived="0" entered="5" left="12" laneChangedFrom="0" laneChangedTo="0"/>
        <edge id="middle" sampledSeconds="75.49" traveltime="30.20" density="3.05" occupancy="0.91" waitingTime="0.00" speed="32.79" departed="0" arrived="0" entered="3" left="4" laneChangedFrom="0" laneChangedTo="0"/>
        <edge id="rend" sampledSeconds="188.24" traveltime="17.99" density="15.06" occupancy="4.52" waitingTime="0.00" speed="27.80" departed="0" arrived="8" entered="12" left="0" laneChangedFrom="0" laneChangedTo="0"/>
    </interval>
    <interval begin="275.00" end="300.00" id="dump_25">
        <edge id="beg" sampledSeconds="57.22" traveltime="22.75" density="4.59" occupancy="1.38" waitingTime="0.00" speed="21.92" departed="2" arrived="0" entered="0" left="2" laneChangedFrom="0" laneChangedTo="0"/>
        <edge id="end" sampledSeconds="52.39" traveltime="20.54" density="4.20" occupancy="1.26" waitingTime="0.00" speed="24.27" departed="0" arrived="0" entered="2" left="3" laneChangedFrom="0" laneChangedTo="0"/>
        <edge id="middle" sampledSeconds="73.35" traveltime="29.22" density="2.96" occupancy="0.89" waitingTime="0.00" speed="33.90" departed="0" arrived="0" entered="2" left="2" laneChangedFrom="0" laneChangedTo="0"/>
        <edge id="rend" sampledSeconds="91.94" traveltime="17.99" density="7.36" occupancy="2.21" waitingTime="0.00" speed="27.80" departed="0" arrived="8" entered="3" left="0" laneChangedFrom="0" laneChangedTo="0"/>
    </interval>
    <interval begin="300.00" end="325.00" id="dump_25">
        <edge id="beg" sampledSeconds="19.22" traveltime="18.64" density="1.54" occupancy="0.46" waitingTime="0.00" speed="26.74" departed="0" arrived="0" entered="0" left="2" laneChangedFrom="0" laneChangedTo="0"/>
        <edge id="end" sampledSeconds="52.14" traveltime="19.95" density="4.18" occupancy="1.26" waitingTime="0.00" speed="24.99" departed="0" arrived="0" entered="3" left="2" laneChangedFrom="0" laneChangedTo="0"/>
        <edge id="middle" sampledSeconds="72.28" traveltime="29.33" density="2.92" occupancy="0.88" waitingTime="0.00" speed="33.77" departed="0" arrived="0" entered="2" left="3" laneChangedFrom="0" laneChangedTo="0"/>
        <edge id="rend" sampledSeconds="43.93" traveltime="17.99" density="3.51" occupancy="1.05" waitingTime="0.00" speed="27.80" departed="0" arrived="3" entered="2" left="0" laneChangedFrom="0" laneChangedTo="0"/>
    </interval>
    <interval begin="325.00" end="350.00" id="dump_25">
        <edge id="end" sampledSeconds="51.64" traveltime="20.58" density="4.14" occupancy="1.24" waitingTime="0.00" speed="24.22" departed="0" arrived="0" entered="2" left="3" laneChangedFrom="0" laneChangedTo="0"/>
        <edge id="middle" sampledSeconds="27.87" traveltime="34.61" density="1.13" occupancy="0.34" waitingTime="0.00" speed="28.62" departed="0" arrived="0" entered="0" left="2" laneChangedFrom="0" laneChangedTo="0"/>
        <edge id="rend" sampledSeconds="45.89" traveltime="17.99" density="3.67" occupancy="1.10" waitingTime="0.00" speed="27.80" departed="0" arrived="2" entered="3" left="0" laneChangedFrom="0" laneChangedTo="0"/>
    </interval>
    <interval begin="350.00" end="375.00" id="dump_25">
        <edge id="end" sampledSeconds="20.25" traveltime="18.02" density="1.62" occupancy="0.49" waitingTime="0.00" speed="27.67" departed="0" arrived="0" entered="0" left="2" laneChangedFrom="0" laneChangedTo="0"/>
        <edge id="rend" sampledSeconds="43.93" traveltime="17.99" density="3.51" occupancy="1.05" waitingTime="0.00" speed="27.80" departed="0" arrived="3" entered="2" left="0" laneChangedFrom="0" laneChangedTo="0"/>
    </interval>
    <interval begin="375.00" end="400.00" id="dump_25">
        <edge id="rend" sampledSeconds="8.00" traveltime="17.99" density="0.64" occupancy="0.19" waitingTime="0.00" speed="27.80" departed="0" arrived="1" entered="0" left="0" laneChangedFrom="0" laneChangedTo="0"/>
    </interval>
    <interval begin="400.00" end="425.00" id="dump_25"/>
    <interval begin="425.00" end="450.00" id="dump_25"/>
    <interval begin="450.00" end="475.00" id="dump_25"/>
    <interval begin="475.00" end="500.00" id="dump_25"/>
    <interval begin="500.00" end="525.00" id="dump_25"/>
    <interval begin="525.00" end="550.00" id="dump_25"/>
    <interval begin="550.00" end="575.00" id="dump_25"/>
    <interval begin="575.00" end="600.00" id="dump_25"/>
    <interval begin="600.00" end="625.00" id="dump_25"/>
    <interval begin="625.00" end="650.00" id="dump_25"/>
    <interval begin="650.00" end="675.00" id="dump_25"/>
    <interval begin="675.00" end="700.00" id="dump_25"/>
    <interval begin="700.00" end="725.00" id="dump_25"/>
    <interval begin="725.00" end="750.00" id="dump_25"/>
    <interval begin="750.00" end="775.00" id="dump_25"/>
    <interval begin="775.00" end="800.00" id="dump_25"/>
    <interval begin="800.00" end="825.00" id="dump_25"/>
    <interval begin="825.00" end="850.00" id="dump_25"/>
    <interval begin="850.00" end="875.00" id="dump_25"/>
    <interval begin="875.00" end="900.00" id="dump_25"/>
    <interval begin="900.00" end="925.00" id="dump_25"/>
    <interval begin="925.00" end="950.00" id="dump_25"/>
    <interval begin="950.00" end="975.00" id="dump_25"/>
    <interval begin="975.00" end="1000.00" id="dump_25"/>
</meandata>
