<?xml version="1.0" encoding="UTF-8"?>

<!-- generated on Thu May 12 15:24:55 2016 by SUMO Version dev-SVN-r20713
<?xml version="1.0" encoding="UTF-8"?>

<configuration xmlns:xsi="http://www.w3.org/2001/XMLSchema-instance" xsi:noNamespaceSchemaLocation="http://sumo.dlr.de/xsd/sumoConfiguration.xsd">

    <input>
        <net-file value="net.net.xml"/>
        <additional-files value="input_routes.rou.xml"/>
    </input>

    <output>
        <tripinfo-output value="tripinfos.xml"/>
    </output>

    <time>
        <step-length value="0.1"/>
    </time>

    <report>
        <xml-validation value="never"/>
        <no-step-log value="true"/>
    </report>

    <gui_only>
        <gui-settings-file value="settings.xml"/>
    </gui_only>

</configuration>
-->

<tripinfos xmlns:xsi="http://www.w3.org/2001/XMLSchema-instance" xsi:noNamespaceSchemaLocation="http://sumo.dlr.de/xsd/tripinfo_file.xsd">
    <tripinfo id="oncoming1" depart="0.00" departLane="-VODUGES_beg_0" departPos="100.00" departSpeed="0.00" departDelay="0.00" arrival="10.70" arrivalLane="-VODUGES_beg_0" arrivalPos="200.00" arrivalSpeed="13.89" duration="10.70" routeLength="100.00" waitSteps="0" timeLoss="3.39" rerouteNo="0" devices="tripinfo_oncoming1" vType="opposite" vaporized=""/>
    <tripinfo id="oncoming1_1" depart="0.00" departLane="gneE1_0" departPos="100.00" departSpeed="0.00" departDelay="0.00" arrival="10.70" arrivalLane="gneE1_0" arrivalPos="200.00" arrivalSpeed="13.80" duration="10.70" routeLength="100.00" waitSteps="0" timeLoss="3.35" rerouteNo="0" devices="tripinfo_oncoming1_1" vType="opposite" vaporized=""/>
    <tripinfo id="oncoming2" depart="0.00" departLane="-VODUGES_beg_0" departPos="0.00" departSpeed="0.00" departDelay="0.00" arrival="17.90" arrivalLane="-VODUGES_beg_0" arrivalPos="200.00" arrivalSpeed="13.88" duration="17.90" routeLength="200.00" waitSteps="0" timeLoss="3.28" rerouteNo="0" devices="tripinfo_oncoming2" vType="opposite" vaporized=""/>
    <tripinfo id="oncoming2_1" depart="0.00" departLane="gneE1_0" departPos="0.00" departSpeed="0.00" departDelay="0.00" arrival="17.90" arrivalLane="gneE1_0" arrivalPos="200.00" arrivalSpeed="13.78" duration="17.90" routeLength="200.00" waitSteps="0" timeLoss="3.28" rerouteNo="0" devices="tripinfo_oncoming2_1" vType="opposite" vaporized=""/>
    <tripinfo id="overtaking" depart="1.00" departLane="VODUGES_beg_0" departPos="0.00" departSpeed="0.00" departDelay="0.00" arrival="23.10" arrivalLane="VODUGES_beg_0" arrivalPos="200.00" arrivalSpeed="13.89" duration="22.10" routeLength="200.00" waitSteps="0" timeLoss="7.51" rerouteNo="0" devices="tripinfo_overtaking" vType="DEFAULT_VEHTYPE" vaporized=""/>
    <tripinfo id="stopped" depart="0.00" departLane="VODUGES_beg_0" departPos="40.00" departSpeed="0.00" departDelay="0.00" arrival="120.80" arrivalLane="VODUGES_beg_0" arrivalPos="200.00" arrivalSpeed="13.80" duration="120.80" routeLength="160.00" waitSteps="1" timeLoss="8.96" rerouteNo="0" devices="tripinfo_stopped" vType="DEFAULT_VEHTYPE" vaporized=""/>
    <tripinfo id="stopped_1" depart="0.00" departLane="gneE0_0" departPos="40.00" departSpeed="0.00" departDelay="0.00" arrival="120.80" arrivalLane="gneE0_0" arrivalPos="200.00" arrivalSpeed="13.84" duration="120.80" routeLength="160.00" waitSteps="2" timeLoss="8.98" rerouteNo="0" devices="tripinfo_stopped_1" vType="DEFAULT_VEHTYPE" vaporized=""/>
    <tripinfo id="overtaking_1" depart="1.00" departLane="gneE0_0" departPos="0.00" departSpeed="0.00" departDelay="0.00" arrival="122.30" arrivalLane="gneE0_0" arrivalPos="200.00" arrivalSpeed="13.81" duration="121.30" routeLength="200.00" waitSteps="947" timeLoss="106.65" rerouteNo="0" devices="tripinfo_overtaking_1" vType="DEFAULT_VEHTYPE" vaporized=""/>
</tripinfos>
