<?xml version="1.0" encoding="UTF-8"?>

<!-- generated on Tue Apr  5 13:40:38 2016 by SUMO Version dev-SVN-r20343
<?xml version="1.0" encoding="UTF-8"?>

<configuration xmlns:xsi="http://www.w3.org/2001/XMLSchema-instance" xsi:noNamespaceSchemaLocation="http://sumo.dlr.de/xsd/sumoConfiguration.xsd">

    <input>
        <net-file value="net.net.xml"/>
        <route-files value="input_routes.rou.xml"/>
        <additional-files value="input_additional.add.xml"/>
    </input>

    <report>
        <xml-validation value="never"/>
        <duration-log.disable value="true"/>
        <no-step-log value="true"/>
    </report>

</configuration>
-->

<detector xmlns:xsi="http://www.w3.org/2001/XMLSchema-instance" xsi:noNamespaceSchemaLocation="http://sumo.dlr.de/xsd/det_e1_file.xsd">
   <interval begin="0.00" end="180.00" id="TLS0_actuated_additional_InductLoopOn_4si_0" nVehContrib="0" flow="0.00" occupancy="0.00" speed="-1.00" length="-1.00" nVehEntered="0">
   </interval>
   <interval begin="0.00" end="180.00" id="TLS0_actuated_additional_InductLoopOn_4si_1" nVehContrib="0" flow="0.00" occupancy="0.00" speed="-1.00" length="-1.00" nVehEntered="0">
   </interval>
   <interval begin="0.00" end="180.00" id="TLS0_actuated_additional_InductLoopOn_4si_2" nVehContrib="0" flow="0.00" occupancy="0.00" speed="-1.00" length="-1.00" nVehEntered="0">
   </interval>
   <interval begin="0.00" end="180.00" id="TLS0_actuated_additional_InductLoopOn_2si_0" nVehContrib="0" flow="0.00" occupancy="0.00" speed="-1.00" length="-1.00" nVehEntered="0">
   </interval>
   <interval begin="0.00" end="180.00" id="TLS0_actuated_additional_InductLoopOn_2si_1" nVehContrib="0" flow="0.00" occupancy="0.00" speed="-1.00" length="-1.00" nVehEntered="0">
   </interval>
   <interval begin="0.00" end="180.00" id="TLS0_actuated_additional_InductLoopOn_2si_2" nVehContrib="0" flow="0.00" occupancy="0.00" speed="-1.00" length="-1.00" nVehEntered="0">
   </interval>
   <interval begin="0.00" end="180.00" id="TLS0_actuated_additional_InductLoopOn_3si_0" nVehContrib="0" flow="0.00" occupancy="0.00" speed="-1.00" length="-1.00" nVehEntered="0">
   </interval>
   <interval begin="0.00" end="180.00" id="TLS0_actuated_additional_InductLoopOn_3si_1" nVehContrib="10" flow="200.00" occupancy="7.02" speed="5.66" length="5.00" nVehEntered="10">
      <typedInterval type="DEFAULT_VEHTYPE" begin="0.00" end="180.00" id="TLS0_actuated_additional_InductLoopOn_3si_1" nVehContrib="10" flow="200.00" occupancy="7.02" speed="5.66" length="5.00" nVehEntered="10"/>
   </interval>
   <interval begin="0.00" end="180.00" id="TLS0_actuated_additional_InductLoopOn_3si_2" nVehContrib="0" flow="0.00" occupancy="0.00" speed="-1.00" length="-1.00" nVehEntered="0">
   </interval>
   <interval begin="0.00" end="180.00" id="TLS0_actuated_additional_InductLoopOn_1si_0" nVehContrib="0" flow="0.00" occupancy="0.00" speed="-1.00" length="-1.00" nVehEntered="0">
   </interval>
   <interval begin="0.00" end="180.00" id="TLS0_actuated_additional_InductLoopOn_1si_1" nVehContrib="31" flow="620.00" occupancy="12.24" speed="9.74" length="5.00" nVehEntered="31">
      <typedInterval type="DEFAULT_VEHTYPE" begin="0.00" end="180.00" id="TLS0_actuated_additional_InductLoopOn_1si_1" nVehContrib="31" flow="620.00" occupancy="12.24" speed="9.74" length="5.00" nVehEntered="31"/>
   </interval>
   <interval begin="0.00" end="180.00" id="TLS0_actuated_additional_InductLoopOn_1si_2" nVehContrib="0" flow="0.00" occupancy="0.00" speed="-1.00" length="-1.00" nVehEntered="0">
   </interval>
   <interval begin="180.00" end="360.00" id="TLS0_actuated_additional_InductLoopOn_4si_0" nVehContrib="0" flow="0.00" occupancy="0.00" speed="-1.00" length="-1.00" nVehEntered="0">
   </interval>
   <interval begin="180.00" end="360.00" id="TLS0_actuated_additional_InductLoopOn_4si_1" nVehContrib="0" flow="0.00" occupancy="0.00" speed="-1.00" length="-1.00" nVehEntered="0">
   </interval>
   <interval begin="180.00" end="360.00" id="TLS0_actuated_additional_InductLoopOn_4si_2" nVehContrib="0" flow="0.00" occupancy="0.00" speed="-1.00" length="-1.00" nVehEntered="0">
   </interval>
   <interval begin="180.00" end="360.00" id="TLS0_actuated_additional_InductLoopOn_2si_0" nVehContrib="0" flow="0.00" occupancy="0.00" speed="-1.00" length="-1.00" nVehEntered="0">
   </interval>
   <interval begin="180.00" end="360.00" id="TLS0_actuated_additional_InductLoopOn_2si_1" nVehContrib="0" flow="0.00" occupancy="0.00" speed="-1.00" length="-1.00" nVehEntered="0">
   </interval>
   <interval begin="180.00" end="360.00" id="TLS0_actuated_additional_InductLoopOn_2si_2" nVehContrib="0" flow="0.00" occupancy="0.00" speed="-1.00" length="-1.00" nVehEntered="0">
   </interval>
   <interval begin="180.00" end="360.00" id="TLS0_actuated_additional_InductLoopOn_3si_0" nVehContrib="0" flow="0.00" occupancy="0.00" speed="-1.00" length="-1.00" nVehEntered="0">
   </interval>
   <interval begin="180.00" end="360.00" id="TLS0_actuated_additional_InductLoopOn_3si_1" nVehContrib="23" flow="460.00" occupancy="9.28" speed="9.16" length="5.00" nVehEntered="23">
      <typedInterval type="DEFAULT_VEHTYPE" begin="180.00" end="360.00" id="TLS0_actuated_additional_InductLoopOn_3si_1" nVehContrib="23" flow="460.00" occupancy="9.28" speed="9.16" length="5.00" nVehEntered="23"/>
   </interval>
   <interval begin="180.00" end="360.00" id="TLS0_actuated_additional_InductLoopOn_3si_2" nVehContrib="0" flow="0.00" occupancy="0.00" speed="-1.00" length="-1.00" nVehEntered="0">
   </interval>
   <interval begin="180.00" end="360.00" id="TLS0_actuated_additional_InductLoopOn_1si_0" nVehContrib="0" flow="0.00" occupancy="0.00" speed="-1.00" length="-1.00" nVehEntered="0">
   </interval>
   <interval begin="180.00" end="360.00" id="TLS0_actuated_additional_InductLoopOn_1si_1" nVehContrib="48" flow="960.00" occupancy="14.28" speed="10.43" length="5.00" nVehEntered="48">
      <typedInterval type="DEFAULT_VEHTYPE" begin="180.00" end="360.00" id="TLS0_actuated_additional_InductLoopOn_1si_1" nVehContrib="48" flow="960.00" occupancy="14.28" speed="10.43" length="5.00" nVehEntered="48"/>
   </interval>
   <interval begin="180.00" end="360.00" id="TLS0_actuated_additional_InductLoopOn_1si_2" nVehContrib="0" flow="0.00" occupancy="0.00" speed="-1.00" length="-1.00" nVehEntered="0">
   </interval>
   <interval begin="360.00" end="477.00" id="TLS0_actuated_additional_InductLoopOn_4si_0" nVehContrib="0" flow="0.00" occupancy="0.00" speed="-1.00" length="-1.00" nVehEntered="0">
   </interval>
   <interval begin="360.00" end="477.00" id="TLS0_actuated_additional_InductLoopOn_4si_1" nVehContrib="0" flow="0.00" occupancy="0.00" speed="-1.00" length="-1.00" nVehEntered="0">
   </interval>
   <interval begin="360.00" end="477.00" id="TLS0_actuated_additional_InductLoopOn_4si_2" nVehContrib="0" flow="0.00" occupancy="0.00" speed="-1.00" length="-1.00" nVehEntered="0">
   </interval>
   <interval begin="360.00" end="477.00" id="TLS0_actuated_additional_InductLoopOn_2si_0" nVehContrib="0" flow="0.00" occupancy="0.00" speed="-1.00" length="-1.00" nVehEntered="0">
   </interval>
   <interval begin="360.00" end="477.00" id="TLS0_actuated_additional_InductLoopOn_2si_1" nVehContrib="0" flow="0.00" occupancy="0.00" speed="-1.00" length="-1.00" nVehEntered="0">
   </interval>
   <interval begin="360.00" end="477.00" id="TLS0_actuated_additional_InductLoopOn_2si_2" nVehContrib="0" flow="0.00" occupancy="0.00" speed="-1.00" length="-1.00" nVehEntered="0">
   </interval>
   <interval begin="360.00" end="477.00" id="TLS0_actuated_additional_InductLoopOn_3si_0" nVehContrib="0" flow="0.00" occupancy="0.00" speed="-1.00" length="-1.00" nVehEntered="0">
   </interval>
   <interval begin="360.00" end="477.00" id="TLS0_actuated_additional_InductLoopOn_3si_1" nVehContrib="4" flow="123.08" occupancy="2.44" speed="7.77" length="5.00" nVehEntered="4">
      <typedInterval type="DEFAULT_VEHTYPE" begin="360.00" end="477.00" id="TLS0_actuated_additional_InductLoopOn_3si_1" nVehContrib="4" flow="123.08" occupancy="2.44" speed="7.77" length="5.00" nVehEntered="4"/>
   </interval>
   <interval begin="360.00" end="477.00" id="TLS0_actuated_additional_InductLoopOn_3si_2" nVehContrib="0" flow="0.00" occupancy="0.00" speed="-1.00" length="-1.00" nVehEntered="0">
   </interval>
   <interval begin="360.00" end="477.00" id="TLS0_actuated_additional_InductLoopOn_1si_0" nVehContrib="0" flow="0.00" occupancy="0.00" speed="-1.00" length="-1.00" nVehEntered="0">
   </interval>
   <interval begin="360.00" end="477.00" id="TLS0_actuated_additional_InductLoopOn_1si_1" nVehContrib="15" flow="461.54" occupancy="8.51" speed="9.56" length="5.00" nVehEntered="15">
      <typedInterval type="DEFAULT_VEHTYPE" begin="360.00" end="477.00" id="TLS0_actuated_additional_InductLoopOn_1si_1" nVehContrib="15" flow="461.54" occupancy="8.51" speed="9.56" length="5.00" nVehEntered="15"/>
   </interval>
   <interval begin="360.00" end="477.00" id="TLS0_actuated_additional_InductLoopOn_1si_2" nVehContrib="0" flow="0.00" occupancy="0.00" speed="-1.00" length="-1.00" nVehEntered="0">
   </interval>
</detector>
