<?xml version="1.0" encoding="UTF-8"?>

<!-- generated on Mon May 30 14:25:35 2016 by SUMO Version dev-SVN-r20808
<?xml version="1.0" encoding="UTF-8"?>

<configuration xmlns:xsi="http://www.w3.org/2001/XMLSchema-instance" xsi:noNamespaceSchemaLocation="http://sumo.dlr.de/xsd/sumoConfiguration.xsd">

    <input>
        <net-file value="net.net.xml"/>
        <route-files value="input_routes.rou.xml"/>
        <additional-files value="input_additional.add.xml"/>
    </input>

    <report>
        <xml-validation value="never"/>
        <duration-log.disable value="true"/>
        <no-step-log value="true"/>
    </report>

</configuration>
-->

<detector xmlns:xsi="http://www.w3.org/2001/XMLSchema-instance" xsi:noNamespaceSchemaLocation="http://sumo.dlr.de/xsd/det_e1_file.xsd">
   <interval begin="0.00" end="180.00" id="TLS0_actuated_additional_InductLoopOn_4si_0" nVehContrib="0" flow="0.00" occupancy="0.00" speed="-1.00" length="-1.00" nVehEntered="0">
   </interval>
   <interval begin="0.00" end="180.00" id="TLS0_actuated_additional_InductLoopOn_4si_1" nVehContrib="0" flow="0.00" occupancy="0.00" speed="-1.00" length="-1.00" nVehEntered="0">
   </interval>
   <interval begin="0.00" end="180.00" id="TLS0_actuated_additional_InductLoopOn_4si_2" nVehContrib="0" flow="0.00" occupancy="0.00" speed="-1.00" length="-1.00" nVehEntered="0">
   </interval>
   <interval begin="0.00" end="180.00" id="TLS0_actuated_additional_InductLoopOn_2si_0" nVehContrib="0" flow="0.00" occupancy="0.00" speed="-1.00" length="-1.00" nVehEntered="0">
   </interval>
   <interval begin="0.00" end="180.00" id="TLS0_actuated_additional_InductLoopOn_2si_1" nVehContrib="0" flow="0.00" occupancy="0.00" speed="-1.00" length="-1.00" nVehEntered="0">
   </interval>
   <interval begin="0.00" end="180.00" id="TLS0_actuated_additional_InductLoopOn_2si_2" nVehContrib="0" flow="0.00" occupancy="0.00" speed="-1.00" length="-1.00" nVehEntered="0">
   </interval>
   <interval begin="0.00" end="180.00" id="TLS0_actuated_additional_InductLoopOn_3si_0" nVehContrib="0" flow="0.00" occupancy="0.00" speed="-1.00" length="-1.00" nVehEntered="0">
   </interval>
   <interval begin="0.00" end="180.00" id="TLS0_actuated_additional_InductLoopOn_3si_1" nVehContrib="10" flow="200.00" occupancy="5.87" speed="6.56" length="5.00" nVehEntered="10">
      <typedInterval type="DEFAULT_VEHTYPE" begin="0.00" end="180.00" id="TLS0_actuated_additional_InductLoopOn_3si_1" nVehContrib="10" flow="200.00" occupancy="5.87" speed="6.56" length="5.00" nVehEntered="10"/>
   </interval>
   <interval begin="0.00" end="180.00" id="TLS0_actuated_additional_InductLoopOn_3si_2" nVehContrib="0" flow="0.00" occupancy="0.00" speed="-1.00" length="-1.00" nVehEntered="0">
   </interval>
   <interval begin="0.00" end="180.00" id="TLS0_actuated_additional_InductLoopOn_1si_0" nVehContrib="0" flow="0.00" occupancy="0.00" speed="-1.00" length="-1.00" nVehEntered="0">
   </interval>
   <interval begin="0.00" end="180.00" id="TLS0_actuated_additional_InductLoopOn_1si_1" nVehContrib="32" flow="640.00" occupancy="12.70" speed="9.44" length="5.00" nVehEntered="32">
      <typedInterval type="DEFAULT_VEHTYPE" begin="0.00" end="180.00" id="TLS0_actuated_additional_InductLoopOn_1si_1" nVehContrib="32" flow="640.00" occupancy="12.70" speed="9.44" length="5.00" nVehEntered="32"/>
   </interval>
   <interval begin="0.00" end="180.00" id="TLS0_actuated_additional_InductLoopOn_1si_2" nVehContrib="0" flow="0.00" occupancy="0.00" speed="-1.00" length="-1.00" nVehEntered="0">
   </interval>
   <interval begin="180.00" end="360.00" id="TLS0_actuated_additional_InductLoopOn_4si_0" nVehContrib="0" flow="0.00" occupancy="0.00" speed="-1.00" length="-1.00" nVehEntered="0">
   </interval>
   <interval begin="180.00" end="360.00" id="TLS0_actuated_additional_InductLoopOn_4si_1" nVehContrib="0" flow="0.00" occupancy="0.00" speed="-1.00" length="-1.00" nVehEntered="0">
   </interval>
   <interval begin="180.00" end="360.00" id="TLS0_actuated_additional_InductLoopOn_4si_2" nVehContrib="0" flow="0.00" occupancy="0.00" speed="-1.00" length="-1.00" nVehEntered="0">
   </interval>
   <interval begin="180.00" end="360.00" id="TLS0_actuated_additional_InductLoopOn_2si_0" nVehContrib="0" flow="0.00" occupancy="0.00" speed="-1.00" length="-1.00" nVehEntered="0">
   </interval>
   <interval begin="180.00" end="360.00" id="TLS0_actuated_additional_InductLoopOn_2si_1" nVehContrib="0" flow="0.00" occupancy="0.00" speed="-1.00" length="-1.00" nVehEntered="0">
   </interval>
   <interval begin="180.00" end="360.00" id="TLS0_actuated_additional_InductLoopOn_2si_2" nVehContrib="0" flow="0.00" occupancy="0.00" speed="-1.00" length="-1.00" nVehEntered="0">
   </interval>
   <interval begin="180.00" end="360.00" id="TLS0_actuated_additional_InductLoopOn_3si_0" nVehContrib="0" flow="0.00" occupancy="0.00" speed="-1.00" length="-1.00" nVehEntered="0">
   </interval>
   <interval begin="180.00" end="360.00" id="TLS0_actuated_additional_InductLoopOn_3si_1" nVehContrib="20" flow="400.00" occupancy="8.60" speed="8.72" length="5.00" nVehEntered="20">
      <typedInterval type="DEFAULT_VEHTYPE" begin="180.00" end="360.00" id="TLS0_actuated_additional_InductLoopOn_3si_1" nVehContrib="20" flow="400.00" occupancy="8.60" speed="8.72" length="5.00" nVehEntered="20"/>
   </interval>
   <interval begin="180.00" end="360.00" id="TLS0_actuated_additional_InductLoopOn_3si_2" nVehContrib="0" flow="0.00" occupancy="0.00" speed="-1.00" length="-1.00" nVehEntered="0">
   </interval>
   <interval begin="180.00" end="360.00" id="TLS0_actuated_additional_InductLoopOn_1si_0" nVehContrib="0" flow="0.00" occupancy="0.00" speed="-1.00" length="-1.00" nVehEntered="0">
   </interval>
   <interval begin="180.00" end="360.00" id="TLS0_actuated_additional_InductLoopOn_1si_1" nVehContrib="40" flow="800.00" occupancy="13.47" speed="10.06" length="5.00" nVehEntered="40">
      <typedInterval type="DEFAULT_VEHTYPE" begin="180.00" end="360.00" id="TLS0_actuated_additional_InductLoopOn_1si_1" nVehContrib="40" flow="800.00" occupancy="13.47" speed="10.06" length="5.00" nVehEntered="40"/>
   </interval>
   <interval begin="180.00" end="360.00" id="TLS0_actuated_additional_InductLoopOn_1si_2" nVehContrib="0" flow="0.00" occupancy="0.00" speed="-1.00" length="-1.00" nVehEntered="0">
   </interval>
   <interval begin="360.00" end="502.00" id="TLS0_actuated_additional_InductLoopOn_4si_0" nVehContrib="0" flow="0.00" occupancy="0.00" speed="-1.00" length="-1.00" nVehEntered="0">
   </interval>
   <interval begin="360.00" end="502.00" id="TLS0_actuated_additional_InductLoopOn_4si_1" nVehContrib="0" flow="0.00" occupancy="0.00" speed="-1.00" length="-1.00" nVehEntered="0">
   </interval>
   <interval begin="360.00" end="502.00" id="TLS0_actuated_additional_InductLoopOn_4si_2" nVehContrib="0" flow="0.00" occupancy="0.00" speed="-1.00" length="-1.00" nVehEntered="0">
   </interval>
   <interval begin="360.00" end="502.00" id="TLS0_actuated_additional_InductLoopOn_2si_0" nVehContrib="0" flow="0.00" occupancy="0.00" speed="-1.00" length="-1.00" nVehEntered="0">
   </interval>
   <interval begin="360.00" end="502.00" id="TLS0_actuated_additional_InductLoopOn_2si_1" nVehContrib="0" flow="0.00" occupancy="0.00" speed="-1.00" length="-1.00" nVehEntered="0">
   </interval>
   <interval begin="360.00" end="502.00" id="TLS0_actuated_additional_InductLoopOn_2si_2" nVehContrib="0" flow="0.00" occupancy="0.00" speed="-1.00" length="-1.00" nVehEntered="0">
   </interval>
   <interval begin="360.00" end="502.00" id="TLS0_actuated_additional_InductLoopOn_3si_0" nVehContrib="0" flow="0.00" occupancy="0.00" speed="-1.00" length="-1.00" nVehEntered="0">
   </interval>
   <interval begin="360.00" end="502.00" id="TLS0_actuated_additional_InductLoopOn_3si_1" nVehContrib="4" flow="101.41" occupancy="3.47" speed="5.48" length="5.00" nVehEntered="4">
      <typedInterval type="DEFAULT_VEHTYPE" begin="360.00" end="502.00" id="TLS0_actuated_additional_InductLoopOn_3si_1" nVehContrib="4" flow="101.41" occupancy="3.47" speed="5.48" length="5.00" nVehEntered="4"/>
   </interval>
   <interval begin="360.00" end="502.00" id="TLS0_actuated_additional_InductLoopOn_3si_2" nVehContrib="0" flow="0.00" occupancy="0.00" speed="-1.00" length="-1.00" nVehEntered="0">
   </interval>
   <interval begin="360.00" end="502.00" id="TLS0_actuated_additional_InductLoopOn_1si_0" nVehContrib="0" flow="0.00" occupancy="0.00" speed="-1.00" length="-1.00" nVehEntered="0">
   </interval>
   <interval begin="360.00" end="502.00" id="TLS0_actuated_additional_InductLoopOn_1si_1" nVehContrib="23" flow="583.10" occupancy="10.25" speed="9.59" length="5.00" nVehEntered="23">
      <typedInterval type="DEFAULT_VEHTYPE" begin="360.00" end="502.00" id="TLS0_actuated_additional_InductLoopOn_1si_1" nVehContrib="23" flow="583.10" occupancy="10.25" speed="9.59" length="5.00" nVehEntered="23"/>
   </interval>
   <interval begin="360.00" end="502.00" id="TLS0_actuated_additional_InductLoopOn_1si_2" nVehContrib="0" flow="0.00" occupancy="0.00" speed="-1.00" length="-1.00" nVehEntered="0">
   </interval>
</detector>
