<?xml version="1.0" encoding="UTF-8"?>

<!-- generated on Thu Sep  8 11:30:45 2016 by SUMO Version dev-SVN-r21424
<?xml version="1.0" encoding="UTF-8"?>

<configuration xmlns:xsi="http://www.w3.org/2001/XMLSchema-instance" xsi:noNamespaceSchemaLocation="http://sumo.dlr.de/xsd/sumoConfiguration.xsd">

    <input>
        <net-file value="net.net.xml"/>
        <route-files value="input_routes.rou.xml"/>
        <additional-files value="input_additional.add.xml"/>
    </input>

    <processing>
        <step-method.ballistic value="true"/>
    </processing>

    <report>
        <xml-validation value="never"/>
        <duration-log.disable value="true"/>
        <no-step-log value="true"/>
    </report>

</configuration>
-->

<detector xmlns:xsi="http://www.w3.org/2001/XMLSchema-instance" xsi:noNamespaceSchemaLocation="http://sumo.dlr.de/xsd/det_e1_file.xsd">
   <interval begin="0.00" end="180.00" id="TLS0_actuated_additional_InductLoopOn_4si_0" nVehContrib="0" flow="0.00" occupancy="0.00" speed="-1.00" length="-1.00" nVehEntered="0">
   </interval>
   <interval begin="0.00" end="180.00" id="TLS0_actuated_additional_InductLoopOn_4si_1" nVehContrib="0" flow="0.00" occupancy="0.00" speed="-1.00" length="-1.00" nVehEntered="0">
   </interval>
   <interval begin="0.00" end="180.00" id="TLS0_actuated_additional_InductLoopOn_4si_2" nVehContrib="0" flow="0.00" occupancy="0.00" speed="-1.00" length="-1.00" nVehEntered="0">
   </interval>
   <interval begin="0.00" end="180.00" id="TLS0_actuated_additional_InductLoopOn_2si_0" nVehContrib="0" flow="0.00" occupancy="0.00" speed="-1.00" length="-1.00" nVehEntered="0">
   </interval>
   <interval begin="0.00" end="180.00" id="TLS0_actuated_additional_InductLoopOn_2si_1" nVehContrib="0" flow="0.00" occupancy="0.00" speed="-1.00" length="-1.00" nVehEntered="0">
   </interval>
   <interval begin="0.00" end="180.00" id="TLS0_actuated_additional_InductLoopOn_2si_2" nVehContrib="0" flow="0.00" occupancy="0.00" speed="-1.00" length="-1.00" nVehEntered="0">
   </interval>
   <interval begin="0.00" end="180.00" id="TLS0_actuated_additional_InductLoopOn_3si_0" nVehContrib="0" flow="0.00" occupancy="0.00" speed="-1.00" length="-1.00" nVehEntered="0">
   </interval>
   <interval begin="0.00" end="180.00" id="TLS0_actuated_additional_InductLoopOn_3si_1" nVehContrib="10" flow="200.00" occupancy="5.87" speed="6.56" length="5.00" nVehEntered="10">
      <typedInterval type="DEFAULT_VEHTYPE" begin="0.00" end="180.00" id="TLS0_actuated_additional_InductLoopOn_3si_1" nVehContrib="10" flow="200.00" occupancy="5.87" speed="6.56" length="5.00" nVehEntered="10"/>
   </interval>
   <interval begin="0.00" end="180.00" id="TLS0_actuated_additional_InductLoopOn_3si_2" nVehContrib="0" flow="0.00" occupancy="0.00" speed="-1.00" length="-1.00" nVehEntered="0">
   </interval>
   <interval begin="0.00" end="180.00" id="TLS0_actuated_additional_InductLoopOn_1si_0" nVehContrib="0" flow="0.00" occupancy="0.00" speed="-1.00" length="-1.00" nVehEntered="0">
   </interval>
   <interval begin="0.00" end="180.00" id="TLS0_actuated_additional_InductLoopOn_1si_1" nVehContrib="32" flow="640.00" occupancy="12.70" speed="9.44" length="5.00" nVehEntered="32">
      <typedInterval type="DEFAULT_VEHTYPE" begin="0.00" end="180.00" id="TLS0_actuated_additional_InductLoopOn_1si_1" nVehContrib="32" flow="640.00" occupancy="12.70" speed="9.44" length="5.00" nVehEntered="32"/>
   </interval>
   <interval begin="0.00" end="180.00" id="TLS0_actuated_additional_InductLoopOn_1si_2" nVehContrib="0" flow="0.00" occupancy="0.00" speed="-1.00" length="-1.00" nVehEntered="0">
   </interval>
   <interval begin="180.00" end="360.00" id="TLS0_actuated_additional_InductLoopOn_4si_0" nVehContrib="0" flow="0.00" occupancy="0.00" speed="-1.00" length="-1.00" nVehEntered="0">
   </interval>
   <interval begin="180.00" end="360.00" id="TLS0_actuated_additional_InductLoopOn_4si_1" nVehContrib="0" flow="0.00" occupancy="0.00" speed="-1.00" length="-1.00" nVehEntered="0">
   </interval>
   <interval begin="180.00" end="360.00" id="TLS0_actuated_additional_InductLoopOn_4si_2" nVehContrib="0" flow="0.00" occupancy="0.00" speed="-1.00" length="-1.00" nVehEntered="0">
   </interval>
   <interval begin="180.00" end="360.00" id="TLS0_actuated_additional_InductLoopOn_2si_0" nVehContrib="0" flow="0.00" occupancy="0.00" speed="-1.00" length="-1.00" nVehEntered="0">
   </interval>
   <interval begin="180.00" end="360.00" id="TLS0_actuated_additional_InductLoopOn_2si_1" nVehContrib="0" flow="0.00" occupancy="0.00" speed="-1.00" length="-1.00" nVehEntered="0">
   </interval>
   <interval begin="180.00" end="360.00" id="TLS0_actuated_additional_InductLoopOn_2si_2" nVehContrib="0" flow="0.00" occupancy="0.00" speed="-1.00" length="-1.00" nVehEntered="0">
   </interval>
   <interval begin="180.00" end="360.00" id="TLS0_actuated_additional_InductLoopOn_3si_0" nVehContrib="0" flow="0.00" occupancy="0.00" speed="-1.00" length="-1.00" nVehEntered="0">
   </interval>
   <interval begin="180.00" end="360.00" id="TLS0_actuated_additional_InductLoopOn_3si_1" nVehContrib="16" flow="320.00" occupancy="7.41" speed="8.54" length="5.00" nVehEntered="16">
      <typedInterval type="DEFAULT_VEHTYPE" begin="180.00" end="360.00" id="TLS0_actuated_additional_InductLoopOn_3si_1" nVehContrib="16" flow="320.00" occupancy="7.41" speed="8.54" length="5.00" nVehEntered="16"/>
   </interval>
   <interval begin="180.00" end="360.00" id="TLS0_actuated_additional_InductLoopOn_3si_2" nVehContrib="0" flow="0.00" occupancy="0.00" speed="-1.00" length="-1.00" nVehEntered="0">
   </interval>
   <interval begin="180.00" end="360.00" id="TLS0_actuated_additional_InductLoopOn_1si_0" nVehContrib="0" flow="0.00" occupancy="0.00" speed="-1.00" length="-1.00" nVehEntered="0">
   </interval>
   <interval begin="180.00" end="360.00" id="TLS0_actuated_additional_InductLoopOn_1si_1" nVehContrib="40" flow="800.00" occupancy="14.26" speed="9.48" length="5.00" nVehEntered="40">
      <typedInterval type="DEFAULT_VEHTYPE" begin="180.00" end="360.00" id="TLS0_actuated_additional_InductLoopOn_1si_1" nVehContrib="40" flow="800.00" occupancy="14.26" speed="9.48" length="5.00" nVehEntered="40"/>
   </interval>
   <interval begin="180.00" end="360.00" id="TLS0_actuated_additional_InductLoopOn_1si_2" nVehContrib="0" flow="0.00" occupancy="0.00" speed="-1.00" length="-1.00" nVehEntered="0">
   </interval>
   <interval begin="360.00" end="498.00" id="TLS0_actuated_additional_InductLoopOn_4si_0" nVehContrib="0" flow="0.00" occupancy="0.00" speed="-1.00" length="-1.00" nVehEntered="0">
   </interval>
   <interval begin="360.00" end="498.00" id="TLS0_actuated_additional_InductLoopOn_4si_1" nVehContrib="0" flow="0.00" occupancy="0.00" speed="-1.00" length="-1.00" nVehEntered="0">
   </interval>
   <interval begin="360.00" end="498.00" id="TLS0_actuated_additional_InductLoopOn_4si_2" nVehContrib="0" flow="0.00" occupancy="0.00" speed="-1.00" length="-1.00" nVehEntered="0">
   </interval>
   <interval begin="360.00" end="498.00" id="TLS0_actuated_additional_InductLoopOn_2si_0" nVehContrib="0" flow="0.00" occupancy="0.00" speed="-1.00" length="-1.00" nVehEntered="0">
   </interval>
   <interval begin="360.00" end="498.00" id="TLS0_actuated_additional_InductLoopOn_2si_1" nVehContrib="0" flow="0.00" occupancy="0.00" speed="-1.00" length="-1.00" nVehEntered="0">
   </interval>
   <interval begin="360.00" end="498.00" id="TLS0_actuated_additional_InductLoopOn_2si_2" nVehContrib="0" flow="0.00" occupancy="0.00" speed="-1.00" length="-1.00" nVehEntered="0">
   </interval>
   <interval begin="360.00" end="498.00" id="TLS0_actuated_additional_InductLoopOn_3si_0" nVehContrib="0" flow="0.00" occupancy="0.00" speed="-1.00" length="-1.00" nVehEntered="0">
   </interval>
   <interval begin="360.00" end="498.00" id="TLS0_actuated_additional_InductLoopOn_3si_1" nVehContrib="6" flow="156.52" occupancy="4.33" speed="6.88" length="5.00" nVehEntered="6">
      <typedInterval type="DEFAULT_VEHTYPE" begin="360.00" end="498.00" id="TLS0_actuated_additional_InductLoopOn_3si_1" nVehContrib="6" flow="156.52" occupancy="4.33" speed="6.88" length="5.00" nVehEntered="6"/>
   </interval>
   <interval begin="360.00" end="498.00" id="TLS0_actuated_additional_InductLoopOn_3si_2" nVehContrib="0" flow="0.00" occupancy="0.00" speed="-1.00" length="-1.00" nVehEntered="0">
   </interval>
   <interval begin="360.00" end="498.00" id="TLS0_actuated_additional_InductLoopOn_1si_0" nVehContrib="0" flow="0.00" occupancy="0.00" speed="-1.00" length="-1.00" nVehEntered="0">
   </interval>
   <interval begin="360.00" end="498.00" id="TLS0_actuated_additional_InductLoopOn_1si_1" nVehContrib="18" flow="469.57" occupancy="6.79" speed="10.14" length="5.00" nVehEntered="18">
      <typedInterval type="DEFAULT_VEHTYPE" begin="360.00" end="498.00" id="TLS0_actuated_additional_InductLoopOn_1si_1" nVehContrib="18" flow="469.57" occupancy="6.79" speed="10.14" length="5.00" nVehEntered="18"/>
   </interval>
   <interval begin="360.00" end="498.00" id="TLS0_actuated_additional_InductLoopOn_1si_2" nVehContrib="0" flow="0.00" occupancy="0.00" speed="-1.00" length="-1.00" nVehEntered="0">
   </interval>
</detector>
