<?xml version="1.0" encoding="UTF-8"?>

<!-- generated on Tue Apr  5 13:46:13 2016 by SUMO Version dev-SVN-r20343
<?xml version="1.0" encoding="UTF-8"?>

<configuration xmlns:xsi="http://www.w3.org/2001/XMLSchema-instance" xsi:noNamespaceSchemaLocation="http://sumo.dlr.de/xsd/sumoConfiguration.xsd">

    <input>
        <net-file value="three_split.net.xml"/>
        <route-files value="input_routes.rou.xml"/>
        <additional-files value="input_additional.add.xml,input_additional2.add.xml"/>
    </input>

    <output>
        <netstate-dump value="rawdump.xml"/>
    </output>

    <time>
        <step-length value="0.5"/>
    </time>

    <report>
        <xml-validation value="never"/>
        <duration-log.disable value="true"/>
        <no-step-log value="true"/>
    </report>

</configuration>
-->

<netstate xmlns:xsi="http://www.w3.org/2001/XMLSchema-instance" xsi:noNamespaceSchemaLocation="http://sumo.dlr.de/xsd/netstate_file.xsd">
    <timestep time="0.00">
        <edge id="beg">
            <lane id="beg_0">
                <vehicle id="leader" pos="5.10" speed="0.00"/>
            </lane>
        </edge>
    </timestep>
    <timestep time="0.50">
        <edge id="beg">
            <lane id="beg_0">
                <vehicle id="leader" pos="5.42" speed="1.30"/>
            </lane>
        </edge>
    </timestep>
    <timestep time="1.00">
        <edge id="beg">
            <lane id="beg_0">
                <vehicle id="leader" pos="6.40" speed="2.60"/>
            </lane>
        </edge>
    </timestep>
    <timestep time="1.50">
        <edge id="beg">
            <lane id="beg_0">
                <vehicle id="leader" pos="8.03" speed="3.90"/>
            </lane>
        </edge>
    </timestep>
    <timestep time="2.00">
        <edge id="beg">
            <lane id="beg_0">
                <vehicle id="follower" pos="5.10" speed="0.00"/>
                <vehicle id="leader" pos="10.30" speed="5.20"/>
            </lane>
        </edge>
    </timestep>
    <timestep time="2.50">
        <edge id="beg">
            <lane id="beg_0">
                <vehicle id="follower" pos="5.42" speed="1.30"/>
                <vehicle id="leader" pos="13.23" speed="6.50"/>
            </lane>
        </edge>
    </timestep>
    <timestep time="3.00">
        <edge id="beg">
            <lane id="beg_0">
                <vehicle id="follower" pos="6.40" speed="2.60"/>
                <vehicle id="leader" pos="16.80" speed="7.80"/>
            </lane>
        </edge>
    </timestep>
    <timestep time="3.50">
        <edge id="beg">
            <lane id="beg_0">
                <vehicle id="follower" pos="8.03" speed="3.90"/>
                <vehicle id="leader" pos="21.02" speed="9.10"/>
            </lane>
        </edge>
    </timestep>
    <timestep time="4.00">
        <edge id="beg">
            <lane id="beg_0">
                <vehicle id="follower" pos="10.30" speed="5.20"/>
                <vehicle id="leader" pos="25.90" speed="10.40"/>
            </lane>
        </edge>
    </timestep>
    <timestep time="4.50">
        <edge id="beg">
            <lane id="beg_0">
                <vehicle id="follower" pos="13.23" speed="6.50"/>
                <vehicle id="leader" pos="31.42" speed="11.70"/>
            </lane>
        </edge>
    </timestep>
    <timestep time="5.00">
        <edge id="beg">
            <lane id="beg_0">
                <vehicle id="follower" pos="16.80" speed="7.80"/>
                <vehicle id="leader" pos="37.60" speed="13.00"/>
            </lane>
        </edge>
    </timestep>
    <timestep time="5.50">
        <edge id="beg">
            <lane id="beg_0">
                <vehicle id="follower" pos="21.02" speed="9.10"/>
                <vehicle id="leader" pos="44.42" speed="14.30"/>
            </lane>
        </edge>
    </timestep>
    <timestep time="6.00">
        <edge id="beg">
            <lane id="beg_0">
                <vehicle id="follower" pos="25.90" speed="10.40"/>
                <vehicle id="leader" pos="51.90" speed="15.60"/>
            </lane>
        </edge>
    </timestep>
    <timestep time="6.50">
        <edge id="beg">
            <lane id="beg_0">
                <vehicle id="follower" pos="31.42" speed="11.70"/>
                <vehicle id="leader" pos="60.02" speed="16.90"/>
            </lane>
        </edge>
    </timestep>
    <timestep time="7.00">
        <edge id="beg">
            <lane id="beg_0">
                <vehicle id="follower" pos="37.60" speed="13.00"/>
                <vehicle id="leader" pos="68.80" speed="18.20"/>
            </lane>
        </edge>
    </timestep>
    <timestep time="7.50">
        <edge id="beg">
            <lane id="beg_0">
                <vehicle id="follower" pos="44.42" speed="14.30"/>
                <vehicle id="leader" pos="78.22" speed="19.50"/>
            </lane>
        </edge>
    </timestep>
    <timestep time="8.00">
        <edge id="beg">
            <lane id="beg_0">
                <vehicle id="follower" pos="51.90" speed="15.60"/>
                <vehicle id="leader" pos="88.10" speed="20.00"/>
            </lane>
        </edge>
    </timestep>
    <timestep time="8.50">
        <edge id="beg">
            <lane id="beg_0">
                <vehicle id="follower" pos="60.02" speed="16.90"/>
                <vehicle id="leader" pos="98.10" speed="20.00"/>
            </lane>
        </edge>
    </timestep>
    <timestep time="9.00">
        <edge id="beg">
            <lane id="beg_0">
                <vehicle id="follower" pos="68.80" speed="18.20"/>
                <vehicle id="leader" pos="108.10" speed="20.00"/>
            </lane>
        </edge>
    </timestep>
    <timestep time="9.50">
        <edge id="beg">
            <lane id="beg_0">
                <vehicle id="follower" pos="78.22" speed="19.50"/>
                <vehicle id="leader" pos="118.10" speed="20.00"/>
            </lane>
        </edge>
    </timestep>
    <timestep time="10.00">
        <edge id="beg">
            <lane id="beg_0">
                <vehicle id="follower" pos="88.30" speed="20.80"/>
                <vehicle id="leader" pos="128.10" speed="20.00"/>
            </lane>
        </edge>
    </timestep>
    <timestep time="10.50">
        <edge id="beg">
            <lane id="beg_0">
                <vehicle id="follower" pos="99.03" speed="22.10"/>
                <vehicle id="leader" pos="138.10" speed="20.00"/>
            </lane>
        </edge>
    </timestep>
    <timestep time="11.00">
        <edge id="beg">
            <lane id="beg_0">
                <vehicle id="follower" pos="110.17" speed="22.48"/>
                <vehicle id="leader" pos="148.10" speed="20.00"/>
            </lane>
        </edge>
    </timestep>
    <timestep time="11.50">
        <edge id="beg">
            <lane id="beg_0">
                <vehicle id="follower" pos="121.35" speed="22.26"/>
                <vehicle id="leader" pos="158.10" speed="20.00"/>
            </lane>
        </edge>
    </timestep>
    <timestep time="12.00">
        <edge id="beg">
            <lane id="beg_0">
                <vehicle id="follower" pos="132.43" speed="22.06"/>
                <vehicle id="leader" pos="168.10" speed="20.00"/>
            </lane>
        </edge>
    </timestep>
    <timestep time="12.50">
        <edge id="beg">
            <lane id="beg_0">
                <vehicle id="follower" pos="143.42" speed="21.88"/>
                <vehicle id="leader" pos="178.10" speed="20.00"/>
            </lane>
        </edge>
    </timestep>
    <timestep time="13.00">
        <edge id="beg">
            <lane id="beg_0">
                <vehicle id="follower" pos="154.32" speed="21.71"/>
                <vehicle id="leader" pos="188.10" speed="20.00"/>
            </lane>
        </edge>
    </timestep>
    <timestep time="13.50">
        <edge id="beg">
            <lane id="beg_0">
                <vehicle id="follower" pos="165.13" speed="21.56"/>
                <vehicle id="leader" pos="198.10" speed="20.00"/>
            </lane>
        </edge>
    </timestep>
    <timestep time="14.00">
        <edge id="beg">
            <lane id="beg_0">
                <vehicle id="follower" pos="175.88" speed="21.42"/>
                <vehicle id="leader" pos="208.10" speed="20.00"/>
            </lane>
        </edge>
    </timestep>
    <timestep time="14.50">
        <edge id="beg">
            <lane id="beg_0">
                <vehicle id="follower" pos="186.55" speed="21.29"/>
                <vehicle id="leader" pos="218.10" speed="20.00"/>
            </lane>
        </edge>
    </timestep>
    <timestep time="15.00">
        <edge id="beg">
            <lane id="beg_0">
                <vehicle id="follower" pos="197.17" speed="21.17"/>
                <vehicle id="leader" pos="228.10" speed="20.00"/>
            </lane>
        </edge>
    </timestep>
    <timestep time="15.50">
        <edge id="beg">
            <lane id="beg_0">
                <vehicle id="follower" pos="207.72" speed="21.06"/>
                <vehicle id="leader" pos="238.10" speed="20.00"/>
            </lane>
        </edge>
    </timestep>
    <timestep time="16.00">
        <edge id="beg">
            <lane id="beg_0">
                <vehicle id="follower" pos="218.23" speed="20.96"/>
                <vehicle id="leader" pos="248.10" speed="20.00"/>
            </lane>
        </edge>
    </timestep>
    <timestep time="16.50">
        <edge id="beg">
            <lane id="beg_0">
                <vehicle id="follower" pos="228.69" speed="20.87"/>
                <vehicle id="leader" pos="258.10" speed="20.00"/>
            </lane>
        </edge>
    </timestep>
    <timestep time="17.00">
        <edge id="beg">
            <lane id="beg_0">
                <vehicle id="follower" pos="239.11" speed="20.79"/>
                <vehicle id="leader" pos="268.10" speed="20.00"/>
            </lane>
        </edge>
    </timestep>
    <timestep time="17.50">
        <edge id="beg">
            <lane id="beg_0">
                <vehicle id="follower" pos="249.48" speed="20.72"/>
                <vehicle id="leader" pos="278.10" speed="20.00"/>
            </lane>
        </edge>
    </timestep>
    <timestep time="18.00">
        <edge id="beg">
            <lane id="beg_0">
                <vehicle id="follower" pos="259.83" speed="20.65"/>
                <vehicle id="leader" pos="288.10" speed="20.00"/>
            </lane>
        </edge>
    </timestep>
    <timestep time="18.50">
        <edge id="beg">
            <lane id="beg_0">
                <vehicle id="follower" pos="270.14" speed="20.59"/>
                <vehicle id="leader" pos="298.10" speed="20.00"/>
            </lane>
        </edge>
    </timestep>
    <timestep time="19.00">
        <edge id="beg">
            <lane id="beg_0">
                <vehicle id="follower" pos="280.42" speed="20.54"/>
                <vehicle id="leader" pos="308.10" speed="20.00"/>
            </lane>
        </edge>
    </timestep>
    <timestep time="19.50">
        <edge id="beg">
            <lane id="beg_0">
                <vehicle id="follower" pos="290.68" speed="20.48"/>
                <vehicle id="leader" pos="318.10" speed="20.00"/>
            </lane>
        </edge>
    </timestep>
    <timestep time="20.00">
        <edge id="beg">
            <lane id="beg_0">
                <vehicle id="follower" pos="300.91" speed="20.44"/>
                <vehicle id="leader" pos="328.10" speed="20.00"/>
            </lane>
        </edge>
    </timestep>
    <timestep time="20.50">
        <edge id="beg">
            <lane id="beg_0">
                <vehicle id="follower" pos="311.12" speed="20.40"/>
                <vehicle id="leader" pos="338.10" speed="20.00"/>
            </lane>
        </edge>
    </timestep>
    <timestep time="21.00">
        <edge id="beg">
            <lane id="beg_0">
                <vehicle id="follower" pos="321.30" speed="20.36"/>
                <vehicle id="leader" pos="348.10" speed="20.00"/>
            </lane>
        </edge>
    </timestep>
    <timestep time="21.50">
        <edge id="beg">
            <lane id="beg_0">
                <vehicle id="follower" pos="331.48" speed="20.33"/>
                <vehicle id="leader" pos="358.10" speed="20.00"/>
            </lane>
        </edge>
    </timestep>
    <timestep time="22.00">
        <edge id="beg">
            <lane id="beg_0">
                <vehicle id="follower" pos="341.63" speed="20.29"/>
                <vehicle id="leader" pos="368.10" speed="20.00"/>
            </lane>
        </edge>
    </timestep>
    <timestep time="22.50">
        <edge id="beg">
            <lane id="beg_0">
                <vehicle id="follower" pos="351.77" speed="20.27"/>
                <vehicle id="leader" pos="378.10" speed="20.00"/>
            </lane>
        </edge>
    </timestep>
    <timestep time="23.00">
        <edge id="beg">
            <lane id="beg_0">
                <vehicle id="follower" pos="361.90" speed="20.24"/>
                <vehicle id="leader" pos="388.10" speed="20.00"/>
            </lane>
        </edge>
    </timestep>
    <timestep time="23.50">
        <edge id="beg">
            <lane id="beg_0">
                <vehicle id="follower" pos="372.01" speed="20.22"/>
                <vehicle id="leader" pos="398.10" speed="20.00"/>
            </lane>
        </edge>
    </timestep>
    <timestep time="24.00">
        <edge id="beg">
            <lane id="beg_0">
                <vehicle id="follower" pos="382.12" speed="20.20"/>
                <vehicle id="leader" pos="408.10" speed="20.00"/>
            </lane>
        </edge>
    </timestep>
    <timestep time="24.50">
        <edge id="beg">
            <lane id="beg_0">
                <vehicle id="follower" pos="392.21" speed="20.18"/>
                <vehicle id="leader" pos="418.10" speed="20.00"/>
            </lane>
        </edge>
    </timestep>
    <timestep time="25.00">
        <edge id="beg">
            <lane id="beg_0">
                <vehicle id="follower" pos="402.30" speed="20.16"/>
                <vehicle id="leader" pos="428.10" speed="20.00"/>
            </lane>
        </edge>
    </timestep>
    <timestep time="25.50">
        <edge id="beg">
            <lane id="beg_0">
                <vehicle id="follower" pos="412.37" speed="20.15"/>
                <vehicle id="leader" pos="438.10" speed="20.00"/>
            </lane>
        </edge>
    </timestep>
    <timestep time="26.00">
        <edge id="beg">
            <lane id="beg_0">
                <vehicle id="follower" pos="422.44" speed="20.13"/>
                <vehicle id="leader" pos="448.10" speed="20.00"/>
            </lane>
        </edge>
    </timestep>
    <timestep time="26.50">
        <edge id="beg">
            <lane id="beg_0">
                <vehicle id="follower" pos="432.51" speed="20.12"/>
                <vehicle id="leader" pos="458.10" speed="20.00"/>
            </lane>
        </edge>
    </timestep>
    <timestep time="27.00">
        <edge id="beg">
            <lane id="beg_0">
                <vehicle id="follower" pos="442.56" speed="20.11"/>
                <vehicle id="leader" pos="468.10" speed="20.00"/>
            </lane>
        </edge>
    </timestep>
    <timestep time="27.50">
        <edge id="beg">
            <lane id="beg_0">
                <vehicle id="follower" pos="452.61" speed="20.10"/>
                <vehicle id="leader" pos="478.10" speed="20.00"/>
            </lane>
        </edge>
    </timestep>
    <timestep time="28.00">
        <edge id="beg">
            <lane id="beg_0">
                <vehicle id="follower" pos="462.66" speed="20.09"/>
                <vehicle id="leader" pos="488.10" speed="20.00"/>
            </lane>
        </edge>
    </timestep>
    <timestep time="28.50">
        <edge id="beg">
            <lane id="beg_0">
                <vehicle id="follower" pos="472.70" speed="20.08"/>
                <vehicle id="leader" pos="498.10" speed="20.00"/>
            </lane>
        </edge>
    </timestep>
    <timestep time="29.00">
        <edge id="beg">
            <lane id="beg_0">
                <vehicle id="follower" pos="482.74" speed="20.07"/>
            </lane>
        </edge>
        <edge id="middle">
            <lane id="middle_0">
                <vehicle id="leader" pos="8.10" speed="20.00"/>
            </lane>
        </edge>
    </timestep>
    <timestep time="29.50">
        <edge id="beg">
            <lane id="beg_0">
                <vehicle id="follower" pos="492.78" speed="20.07"/>
            </lane>
        </edge>
        <edge id="middle">
            <lane id="middle_0">
                <vehicle id="leader" pos="18.10" speed="20.00"/>
            </lane>
        </edge>
    </timestep>
    <timestep time="30.00">
        <edge id="middle">
            <lane id="middle_0">
                <vehicle id="follower" pos="2.81" speed="20.06"/>
                <vehicle id="leader" pos="28.10" speed="20.00"/>
            </lane>
        </edge>
    </timestep>
    <timestep time="30.50">
        <edge id="middle">
            <lane id="middle_0">
                <vehicle id="follower" pos="12.83" speed="20.05"/>
                <vehicle id="leader" pos="38.10" speed="20.00"/>
            </lane>
        </edge>
    </timestep>
    <timestep time="31.00">
        <edge id="middle">
            <lane id="middle_0">
                <vehicle id="follower" pos="22.86" speed="20.05"/>
                <vehicle id="leader" pos="48.10" speed="20.00"/>
            </lane>
        </edge>
    </timestep>
    <timestep time="31.50">
        <edge id="middle">
            <lane id="middle_0">
                <vehicle id="follower" pos="32.88" speed="20.04"/>
                <vehicle id="leader" pos="58.10" speed="20.00"/>
            </lane>
        </edge>
    </timestep>
    <timestep time="32.00">
        <edge id="middle">
            <lane id="middle_0">
                <vehicle id="follower" pos="42.90" speed="20.04"/>
                <vehicle id="leader" pos="68.10" speed="20.00"/>
            </lane>
        </edge>
    </timestep>
    <timestep time="32.50">
        <edge id="middle">
            <lane id="middle_0">
                <vehicle id="follower" pos="52.92" speed="20.04"/>
                <vehicle id="leader" pos="78.10" speed="20.00"/>
            </lane>
        </edge>
    </timestep>
    <timestep time="33.00">
        <edge id="middle">
            <lane id="middle_0">
                <vehicle id="follower" pos="62.94" speed="20.03"/>
                <vehicle id="leader" pos="88.10" speed="20.00"/>
            </lane>
        </edge>
    </timestep>
    <timestep time="33.50">
        <edge id="middle">
            <lane id="middle_0">
                <vehicle id="follower" pos="72.96" speed="20.03"/>
                <vehicle id="leader" pos="98.10" speed="20.00"/>
            </lane>
        </edge>
    </timestep>
    <timestep time="34.00">
        <edge id="middle">
            <lane id="middle_0">
                <vehicle id="follower" pos="82.97" speed="20.03"/>
                <vehicle id="leader" pos="108.10" speed="20.00"/>
            </lane>
        </edge>
    </timestep>
    <timestep time="34.50">
        <edge id="middle">
            <lane id="middle_0">
                <vehicle id="follower" pos="92.98" speed="20.02"/>
                <vehicle id="leader" pos="118.10" speed="20.00"/>
            </lane>
        </edge>
    </timestep>
    <timestep time="35.00">
        <edge id="middle">
            <lane id="middle_0">
                <vehicle id="follower" pos="102.99" speed="20.02"/>
                <vehicle id="leader" pos="128.10" speed="20.00"/>
            </lane>
        </edge>
    </timestep>
    <timestep time="35.50">
        <edge id="middle">
            <lane id="middle_0">
                <vehicle id="follower" pos="113.00" speed="20.02"/>
                <vehicle id="leader" pos="138.10" speed="20.00"/>
            </lane>
        </edge>
    </timestep>
    <timestep time="36.00">
        <edge id="middle">
            <lane id="middle_0">
                <vehicle id="follower" pos="123.01" speed="20.02"/>
                <vehicle id="leader" pos="147.98" speed="19.50"/>
            </lane>
        </edge>
    </timestep>
    <timestep time="36.50">
        <edge id="middle">
            <lane id="middle_0">
                <vehicle id="follower" pos="132.91" speed="19.57"/>
                <vehicle id="leader" pos="157.23" speed="17.50"/>
            </lane>
        </edge>
    </timestep>
    <timestep time="37.00">
        <edge id="middle">
            <lane id="middle_0">
                <vehicle id="follower" pos="142.25" speed="17.78"/>
                <vehicle id="leader" pos="165.48" speed="15.52"/>
            </lane>
        </edge>
    </timestep>
    <timestep time="37.50">
        <edge id="middle">
            <lane id="middle_0">
                <vehicle id="follower" pos="150.70" speed="16.02"/>
                <vehicle id="leader" pos="172.75" speed="13.57"/>
            </lane>
        </edge>
    </timestep>
    <timestep time="38.00">
        <edge id="middle">
            <lane id="middle_0">
                <vehicle id="follower" pos="158.28" speed="14.32"/>
                <vehicle id="leader" pos="179.06" speed="11.66"/>
            </lane>
        </edge>
    </timestep>
    <timestep time="38.50">
        <edge id="middle">
            <lane id="middle_0">
                <vehicle id="follower" pos="165.03" speed="12.66"/>
                <vehicle id="leader" pos="184.43" speed="9.80"/>
            </lane>
        </edge>
    </timestep>
    <timestep time="39.00">
        <edge id="middle">
            <lane id="middle_0">
                <vehicle id="follower" pos="170.96" speed="11.07"/>
                <vehicle id="leader" pos="188.88" speed="8.00"/>
            </lane>
        </edge>
    </timestep>
    <timestep time="39.50">
        <edge id="middle">
            <lane id="middle_0">
                <vehicle id="follower" pos="176.11" speed="9.54"/>
                <vehicle id="leader" pos="192.45" speed="6.29"/>
            </lane>
        </edge>
    </timestep>
    <timestep time="40.00">
        <edge id="middle">
            <lane id="middle_0">
                <vehicle id="follower" pos="180.52" speed="8.10"/>
                <vehicle id="leader" pos="195.20" speed="4.70"/>
            </lane>
        </edge>
    </timestep>
    <timestep time="40.50">
        <edge id="middle">
            <lane id="middle_0">
                <vehicle id="follower" pos="184.23" speed="6.74"/>
                <vehicle id="leader" pos="197.19" speed="3.26"/>
            </lane>
        </edge>
    </timestep>
    <timestep time="41.00">
        <edge id="middle">
            <lane id="middle_0">
                <vehicle id="follower" pos="187.28" speed="5.48"/>
                <vehicle id="leader" pos="198.51" speed="2.04"/>
            </lane>
        </edge>
    </timestep>
    <timestep time="41.50">
        <edge id="middle">
            <lane id="middle_0">
                <vehicle id="follower" pos="189.74" speed="4.32"/>
                <vehicle id="leader" pos="199.30" speed="1.11"/>
            </lane>
        </edge>
    </timestep>
    <timestep time="42.00">
        <edge id="middle">
            <lane id="middle_0">
                <vehicle id="follower" pos="191.63" speed="3.26"/>
                <vehicle id="leader" pos="199.71" speed="0.52"/>
            </lane>
        </edge>
    </timestep>
    <timestep time="42.50">
        <edge id="middle">
            <lane id="middle_0">
                <vehicle id="follower" pos="193.02" speed="2.28"/>
                <vehicle id="leader" pos="199.89" speed="0.21"/>
            </lane>
        </edge>
    </timestep>
    <timestep time="43.00">
        <edge id="middle">
            <lane id="middle_0">
                <vehicle id="follower" pos="193.95" speed="1.44"/>
                <vehicle id="leader" pos="199.94" speed="0.00"/>
            </lane>
        </edge>
    </timestep>
    <timestep time="43.50">
        <edge id="middle">
            <lane id="middle_0">
                <vehicle id="follower" pos="194.50" speed="0.76"/>
                <vehicle id="leader" pos="199.94" speed="0.00"/>
            </lane>
        </edge>
    </timestep>
    <timestep time="44.00">
        <edge id="middle">
            <lane id="middle_0">
                <vehicle id="follower" pos="194.77" speed="0.32"/>
                <vehicle id="leader" pos="199.94" speed="0.00"/>
            </lane>
        </edge>
    </timestep>
    <timestep time="44.50">
        <edge id="middle">
            <lane id="middle_0">
                <vehicle id="follower" pos="194.88" speed="0.12"/>
                <vehicle id="leader" pos="199.94" speed="0.00"/>
            </lane>
        </edge>
    </timestep>
    <timestep time="45.00">
        <edge id="middle">
            <lane id="middle_0">
                <vehicle id="follower" pos="194.92" speed="0.04"/>
                <vehicle id="leader" pos="199.94" speed="0.00"/>
            </lane>
        </edge>
    </timestep>
    <timestep time="45.50">
        <edge id="middle">
            <lane id="middle_0">
                <vehicle id="follower" pos="194.93" speed="0.01"/>
                <vehicle id="leader" pos="199.94" speed="0.00"/>
            </lane>
        </edge>
    </timestep>
    <timestep time="46.00">
        <edge id="middle">
            <lane id="middle_0">
                <vehicle id="follower" pos="194.94" speed="0.00"/>
                <vehicle id="leader" pos="199.94" speed="0.00"/>
            </lane>
        </edge>
    </timestep>
    <timestep time="46.50">
        <edge id="middle">
            <lane id="middle_0">
                <vehicle id="follower" pos="194.94" speed="0.00"/>
                <vehicle id="leader" pos="199.94" speed="0.00"/>
            </lane>
        </edge>
    </timestep>
    <timestep time="47.00">
        <edge id="middle">
            <lane id="middle_0">
                <vehicle id="follower" pos="194.94" speed="0.00"/>
                <vehicle id="leader" pos="199.94" speed="0.00"/>
            </lane>
        </edge>
    </timestep>
    <timestep time="47.50">
        <edge id="middle">
            <lane id="middle_0">
                <vehicle id="follower" pos="194.94" speed="0.00"/>
                <vehicle id="leader" pos="199.94" speed="0.00"/>
            </lane>
        </edge>
    </timestep>
    <timestep time="48.00">
        <edge id="middle">
            <lane id="middle_0">
                <vehicle id="follower" pos="194.94" speed="0.00"/>
                <vehicle id="leader" pos="199.96" speed="0.07"/>
            </lane>
        </edge>
    </timestep>
    <timestep time="48.50">
        <edge id="middle">
            <lane id="middle_0">
                <vehicle id="follower" pos="194.95" speed="0.03"/>
                <vehicle id="leader" pos="200.32" speed="1.37"/>
            </lane>
        </edge>
    </timestep>
    <timestep time="49.00">
        <edge id="middle">
            <lane id="middle_0">
                <vehicle id="follower" pos="195.13" speed="0.70"/>
                <vehicle id="leader" pos="201.34" speed="2.67"/>
            </lane>
        </edge>
    </timestep>
    <timestep time="49.50">
        <edge id="middle">
            <lane id="middle_0">
                <vehicle id="follower" pos="195.78" speed="1.90"/>
                <vehicle id="leader" pos="203.00" speed="3.97"/>
            </lane>
        </edge>
    </timestep>
    <timestep time="50.00">
        <edge id="middle">
            <lane id="middle_0">
                <vehicle id="follower" pos="197.05" speed="3.17"/>
                <vehicle id="leader" pos="205.31" speed="5.27"/>
            </lane>
        </edge>
    </timestep>
    <timestep time="50.50">
        <edge id="middle">
            <lane id="middle_0">
                <vehicle id="follower" pos="198.95" speed="4.46"/>
                <vehicle id="leader" pos="208.27" speed="6.57"/>
            </lane>
        </edge>
    </timestep>
    <timestep time="51.00">
        <edge id="middle">
            <lane id="middle_0">
                <vehicle id="follower" pos="201.51" speed="5.76"/>
                <vehicle id="leader" pos="211.88" speed="7.87"/>
            </lane>
        </edge>
    </timestep>
    <timestep time="51.50">
        <edge id="middle">
            <lane id="middle_0">
                <vehicle id="follower" pos="204.71" speed="7.05"/>
                <vehicle id="leader" pos="216.15" speed="9.17"/>
            </lane>
        </edge>
    </timestep>
    <timestep time="52.00">
        <edge id="middle">
            <lane id="middle_0">
                <vehicle id="follower" pos="208.57" speed="8.35"/>
                <vehicle id="leader" pos="221.06" speed="10.47"/>
            </lane>
        </edge>
    </timestep>
    <timestep time="52.50">
        <edge id="middle">
            <lane id="middle_0">
                <vehicle id="follower" pos="213.07" speed="9.65"/>
                <vehicle id="leader" pos="226.62" speed="11.77"/>
            </lane>
        </edge>
    </timestep>
    <timestep time="53.00">
        <edge id="middle">
            <lane id="middle_0">
                <vehicle id="follower" pos="218.22" speed="10.95"/>
                <vehicle id="leader" pos="232.83" speed="13.07"/>
            </lane>
        </edge>
    </timestep>
    <timestep time="53.50">
        <edge id="middle">
            <lane id="middle_0">
                <vehicle id="follower" pos="224.02" speed="12.25"/>
                <vehicle id="leader" pos="239.69" speed="14.37"/>
            </lane>
        </edge>
    </timestep>
    <timestep time="54.00">