<?xml version="1.0" encoding="UTF-8"?>

<!-- generated on Tue Apr  5 13:46:11 2016 by SUMO Version dev-SVN-r20343
<?xml version="1.0" encoding="UTF-8"?>

<configuration xmlns:xsi="http://www.w3.org/2001/XMLSchema-instance" xsi:noNamespaceSchemaLocation="http://sumo.dlr.de/xsd/sumoConfiguration.xsd">

    <input>
        <net-file value="net.net.xml"/>
        <route-files value="input_routes.rou.xml"/>
        <additional-files value="input_additional.add.xml"/>
    </input>

    <output>
        <vehroute-output value="vehroutes.xml"/>
    </output>

    <report>
        <xml-validation value="never"/>
        <duration-log.disable value="true"/>
        <no-step-log value="true"/>
    </report>

</configuration>
-->

<meandata xmlns:xsi="http://www.w3.org/2001/XMLSchema-instance" xsi:noNamespaceSchemaLocation="http://sumo.dlr.de/xsd/meandata_file.xsd">
    <interval begin="0.00" end="232.00" id="ed">
        <edge id="beg" sampledSeconds="2565.83" traveltime="39.16" density="27.75" occupancy="6.94" waitingTime="56.00" speed="10.18" departed="66" arrived="0" entered="0" left="66" laneChangedFrom="2" laneChangedTo="2"/>
        <edge id="end" sampledSeconds="5640.23" traveltime="85.07" density="22.13" occupancy="11.07" waitingTime="0.00" speed="12.91" departed="0" arrived="66" entered="66" left="0" laneChangedFrom="0" laneChangedTo="0"/>
    </interval>
</meandata>
