<?xml version="1.0" encoding="UTF-8"?>

<!-- generated on Wed Jun  1 10:58:16 2016 by SUMO Version dev-SVN-r20832
<?xml version="1.0" encoding="UTF-8"?>

<configuration xmlns:xsi="http://www.w3.org/2001/XMLSchema-instance" xsi:noNamespaceSchemaLocation="http://sumo.dlr.de/xsd/sumoConfiguration.xsd">

    <input>
        <net-file value="net.net.xml"/>
        <additional-files value="input_routes.rou.xml,input_additional.add.xml"/>
    </input>

    <time>
        <begin value="0"/>
        <end value="150"/>
    </time>

    <report>
        <xml-validation value="never"/>
        <duration-log.disable value="true"/>
        <no-step-log value="true"/>
    </report>

</configuration>
-->

<meandata xmlns:xsi="http://www.w3.org/2001/XMLSchema-instance" xsi:noNamespaceSchemaLocation="http://sumo.dlr.de/xsd/meandata_file.xsd">
    <interval begin="0.00" end="15.00" id="dump_15">
        <edge id="1si" sampledSeconds="14.00" traveltime="25.14" density="3.73" occupancy="0.37" waitingTime="0.00" speed="9.94" departed="1" arrived="0" entered="0" left="0" laneChangedFrom="2" laneChangedTo="2"/>
    </interval>
    <interval begin="15.00" end="30.00" id="dump_15">
        <edge id="1si" sampledSeconds="15.00" traveltime="765.98" density="4.00" occupancy="0.40" waitingTime="13.00" speed="0.33" departed="0" arrived="0" entered="0" left="0" laneChangedFrom="0" laneChangedTo="0"/>
    </interval>
    <interval begin="30.00" end="45.00" id="dump_15">
        <edge id="1si" sampledSeconds="15.00" traveltime="100000.00" density="4.00" occupancy="0.40" waitingTime="15.00" speed="0.00" departed="0" arrived="0" entered="0" left="0" laneChangedFrom="0" laneChangedTo="0"/>
    </interval>
    <interval begin="45.00" end="60.00" id="dump_15">
        <edge id="1si" sampledSeconds="3.16" traveltime="148.61" density="0.84" occupancy="0.08" waitingTime="0.00" speed="1.68" departed="0" arrived="0" entered="0" left="1" laneChangedFrom="0" laneChangedTo="0"/>
        <edge id="4o" sampledSeconds="13.42" traveltime="73.99" density="1.79" occupancy="0.54" waitingTime="0.00" speed="6.76" departed="0" arrived="0" entered="1" left="0" laneChangedFrom="0" laneChangedTo="0"/>
    </interval>
    <interval begin="60.00" end="75.00" id="dump_15">
        <edge id="4o" sampledSeconds="15.00" traveltime="50.00" density="2.00" occupancy="0.60" waitingTime="0.00" speed="10.00" departed="0" arrived="0" entered="0" left="0" laneChangedFrom="0" laneChangedTo="0"/>
    </interval>
    <interval begin="75.00" end="90.00" id="dump_15">
        <edge id="4o" sampledSeconds="15.00" traveltime="50.00" density="2.00" occupancy="0.60" waitingTime="0.00" speed="10.00" departed="0" arrived="0" entered="0" left="0" laneChangedFrom="0" laneChangedTo="0"/>
    </interval>
    <interval begin="90.00" end="105.00" id="dump_15">
        <edge id="4o" sampledSeconds="11.66" traveltime="50.00" density="1.55" occupancy="0.47" waitingTime="0.00" speed="10.00" departed="0" arrived="1" entered="0" left="0" laneChangedFrom="0" laneChangedTo="0"/>
    </interval>
    <interval begin="105.00" end="120.00" id="dump_15"/>
    <interval begin="120.00" end="135.00" id="dump_15"/>
    <interval begin="135.00" end="150.00" id="dump_15"/>
</meandata>
