<?xml version="1.0" encoding="UTF-8"?>

<!-- generated on Fri 12 Feb 2016 08:47:33 AM CET by SUMO gui Version dev-SVN-r19964
<?xml version="1.0" encoding="UTF-8"?>

<configuration xmlns:xsi="http://www.w3.org/2001/XMLSchema-instance" xsi:noNamespaceSchemaLocation="http://sumo.dlr.de/xsd/sumo-gui.exeConfiguration.xsd">

    <input>
        <net-file value="net2.net.xml"/>
        <route-files value="routes.rou.xml"/>
    </input>

    <output>
        <netstate-dump value="netstate_dump.xml"/>
    </output>

    <processing>
        <lateral-resolution value="0.8"/>
    </processing>

    <report>
        <xml-validation value="never"/>
        <no-step-log value="true"/>
    </report>

    <traci_server>
        <remote-port value="39575"/>
    </traci_server>

</configuration>
-->

<netstate xmlns:xsi="http://www.w3.org/2001/XMLSchema-instance" xsi:noNamespaceSchemaLocation="http://sumo.dlr.de/xsd/netstate_file.xsd">
    <timestep time="0.00">
        <edge id="SC">
            <lane id="SC_0">
                <vehicle id="VTD_EGO" pos="90.95" speed="0.00" posLat="0.00"/>
            </lane>
            <lane id="SC_1"/>
        </edge>
    </timestep>
    <timestep time="1.00">
        <edge id=":C_6">
            <lane id=":C_6_0">
                <vehicle id="VTD_EGO" pos="15.05" speed="0.00" posLat="6.65"/>
            </lane>
        </edge>
    </timestep>
    <timestep time="2.00">
        <edge id=":C_15">
            <lane id=":C_15_0">
                <vehicle id="VTD_EGO" pos="1.05" speed="0.00" posLat="3.65"/>
            </lane>
        </edge>
    </timestep>
    <timestep time="3.00">
        <edge id=":C_15">
            <lane id=":C_15_0">
                <vehicle id="VTD_EGO" pos="3.65" speed="2.60" posLat="0.00"/>
            </lane>
        </edge>
    </timestep>
    <timestep time="4.00">
        <edge id=":C_15">
            <lane id=":C_15_0">
                <vehicle id="VTD_EGO" pos="8.85" speed="5.20" posLat="0.00"/>
            </lane>
        </edge>
    </timestep>
    <timestep time="5.00">
        <edge id="CE">
            <lane id="CE_0"/>
            <lane id="CE_1">
                <vehicle id="VTD_EGO" pos="0.55" speed="7.80" posLat="0.00"/>
            </lane>
        </edge>
    </timestep>
    <timestep time="6.00">
        <edge id="CE">
            <lane id="CE_0"/>
            <lane id="CE_1">
                <vehicle id="VTD_EGO" pos="10.95" speed="10.40" posLat="0.00"/>
            </lane>
        </edge>
    </timestep>
    <timestep time="7.00">
        <edge id="CE">
            <lane id="CE_0"/>
            <lane id="CE_1">
                <vehicle id="VTD_EGO" pos="23.95" speed="13.00" posLat="0.00"/>
            </lane>
        </edge>
    </timestep>
</netstate>
