<?xml version="1.0" encoding="UTF-8"?>

<!-- generated on Thu May 12 15:24:55 2016 by SUMO Version dev-SVN-r20713
<?xml version="1.0" encoding="UTF-8"?>

<configuration xmlns:xsi="http://www.w3.org/2001/XMLSchema-instance" xsi:noNamespaceSchemaLocation="http://sumo.dlr.de/xsd/sumoConfiguration.xsd">

    <input>
        <net-file value="net.net.xml"/>
        <route-files value="input_routes.rou.xml"/>
    </input>

    <output>
        <fcd-output value="fcd.xml"/>
        <tripinfo-output value="tripinfos.xml"/>
    </output>

    <report>
        <xml-validation value="never"/>
        <no-step-log value="true"/>
    </report>

</configuration>
-->

<fcd-export xmlns:xsi="http://www.w3.org/2001/XMLSchema-instance" xsi:noNamespaceSchemaLocation="http://sumo.dlr.de/xsd/fcd_file.xsd">
    <timestep time="0.00">
        <vehicle id="oncoming1" x="100.00" y="1.65" angle="270.00" type="DEFAULT_VEHTYPE" speed="0.00" pos="100.00" lane="-VODUGES_beg_0" slope="0.00"/>
        <vehicle id="oncoming2" x="200.00" y="1.65" angle="270.00" type="DEFAULT_VEHTYPE" speed="0.00" pos="0.00" lane="-VODUGES_beg_0" slope="0.00"/>
        <vehicle id="overtaking" x="0.00" y="-1.65" angle="90.00" type="DEFAULT_VEHTYPE" speed="0.00" pos="0.00" lane="VODUGES_beg_0" slope="0.00"/>
        <vehicle id="slow" x="40.00" y="-1.65" angle="90.00" type="slow" speed="0.00" pos="40.00" lane="VODUGES_beg_0" slope="0.00"/>
    </timestep>
    <timestep time="1.00">
        <vehicle id="oncoming1" x="98.73" y="1.65" angle="270.00" type="DEFAULT_VEHTYPE" speed="2.54" pos="101.27" lane="-VODUGES_beg_0" slope="0.00"/>
        <vehicle id="oncoming2" x="199.02" y="1.65" angle="270.00" type="DEFAULT_VEHTYPE" speed="1.96" pos="0.98" lane="-VODUGES_beg_0" slope="0.00"/>
        <vehicle id="overtaking" x="0.84" y="-1.65" angle="90.00" type="DEFAULT_VEHTYPE" speed="1.67" pos="0.84" lane="VODUGES_beg_0" slope="0.00"/>
        <vehicle id="slow" x="40.28" y="-1.65" angle="90.00" type="slow" speed="0.55" pos="40.28" lane="VODUGES_beg_0" slope="0.00"/>
    </timestep>
    <timestep time="2.00">
        <vehicle id="oncoming1" x="95.37" y="1.65" angle="270.00" type="DEFAULT_VEHTYPE" speed="4.17" pos="104.63" lane="-VODUGES_beg_0" slope="0.00"/>
        <vehicle id="oncoming2" x="195.92" y="1.65" angle="270.00" type="DEFAULT_VEHTYPE" speed="4.24" pos="4.08" lane="-VODUGES_beg_0" slope="0.00"/>
        <vehicle id="overtaking" x="3.78" y="-1.65" angle="90.00" type="DEFAULT_VEHTYPE" speed="4.22" pos="3.78" lane="VODUGES_beg_0" slope="0.00"/>
        <vehicle id="slow" x="40.91" y="-1.65" angle="90.00" type="slow" speed="0.71" pos="40.91" lane="VODUGES_beg_0" slope="0.00"/>
    </timestep>
    <timestep time="3.00">
        <vehicle id="oncoming1" x="89.90" y="1.65" angle="270.00" type="DEFAULT_VEHTYPE" speed="6.77" pos="110.10" lane="-VODUGES_beg_0" slope="0.00"/>
        <vehicle id="oncoming2" x="190.82" y="1.65" angle="270.00" type="DEFAULT_VEHTYPE" speed="5.96" pos="9.18" lane="-VODUGES_beg_0" slope="0.00"/>
        <vehicle id="overtaking" x="8.82" y="-1.65" angle="90.00" type="DEFAULT_VEHTYPE" speed="5.85" pos="8.82" lane="VODUGES_beg_0" slope="0.00"/>
        <vehicle id="slow" x="41.62" y="-1.65" angle="90.00" type="slow" speed="0.73" pos="41.62" lane="VODUGES_beg_0" slope="0.00"/>
    </timestep>
    <timestep time="4.00">
        <vehicle id="oncoming1" x="82.20" y="1.65" angle="270.00" type="DEFAULT_VEHTYPE" speed="8.63" pos="117.80" lane="-VODUGES_beg_0" slope="0.00"/>
        <vehicle id="oncoming2" x="183.72" y="1.65" angle="270.00" type="DEFAULT_VEHTYPE" speed="8.22" pos="16.28" lane="-VODUGES_beg_0" slope="0.00"/>
        <vehicle id="overtaking" x="15.67" y="-1.65" angle="90.00" type="DEFAULT_VEHTYPE" speed="7.86" pos="15.67" lane="VODUGES_beg_0" slope="0.00"/>
        <vehicle id="slow" x="42.37" y="-1.65" angle="90.00" type="slow" speed="0.77" pos="42.37" lane="VODUGES_beg_0" slope="0.00"/>
    </timestep>
    <timestep time="5.00">
        <vehicle id="oncoming1" x="72.48" y="1.65" angle="270.00" type="DEFAULT_VEHTYPE" speed="10.81" pos="127.52" lane="-VODUGES_beg_0" slope="0.00"/>
        <vehicle id="oncoming2" x="174.65" y="1.65" angle="270.00" type="DEFAULT_VEHTYPE" speed="9.93" pos="25.35" lane="-VODUGES_beg_0" slope="0.00"/>
        <vehicle id="overtaking" x="23.89" y="-1.65" angle="90.00" type="DEFAULT_VEHTYPE" speed="8.57" pos="23.89" lane="VODUGES_beg_0" slope="0.00"/>
        <vehicle id="slow" x="43.24" y="-1.65" angle="90.00" type="slow" speed="0.97" pos="43.24" lane="VODUGES_beg_0" slope="0.00"/>
    </timestep>
    <timestep time="6.00">
        <vehicle id="oncoming1" x="60.57" y="1.65" angle="270.00" type="DEFAULT_VEHTYPE" speed="13.01" pos="139.43" lane="-VODUGES_beg_0" slope="0.00"/>
        <vehicle id="oncoming2" x="163.83" y="1.65" angle="270.00" type="DEFAULT_VEHTYPE" speed="11.71" pos="36.17" lane="-VODUGES_beg_0" slope="0.00"/>
        <vehicle id="overtaking" x="31.02" y="-1.65" angle="90.00" type="DEFAULT_VEHTYPE" speed="5.69" pos="31.02" lane="VODUGES_beg_0" slope="0.00"/>
        <vehicle id="slow" x="44.21" y="-1.65" angle="90.00" type="slow" speed="0.98" pos="44.21" lane="VODUGES_beg_0" slope="0.00"/>
    </timestep>
    <timestep time="7.00">
        <vehicle id="oncoming1" x="47.69" y="1.65" angle="270.00" type="DEFAULT_VEHTYPE" speed="12.74" pos="152.31" lane="-VODUGES_beg_0" slope="0.00"/>
        <vehicle id="oncoming2" x="151.29" y="1.65" angle="270.00" type="DEFAULT_VEHTYPE" speed="13.37" pos="48.71" lane="-VODUGES_beg_0" slope="0.00"/>
        <vehicle id="overtaking" x="35.02" y="-1.65" angle="90.00" type="DEFAULT_VEHTYPE" speed="2.30" pos="35.02" lane="VODUGES_beg_0" slope="0.00"/>
        <vehicle id="slow" x="44.97" y="-1.65" angle="90.00" type="slow" speed="0.53" pos="44.97" lane="VODUGES_beg_0" slope="0.00"/>
    </timestep>
    <timestep time="8.00">
        <vehicle id="oncoming1" x="34.40" y="1.65" angle="270.00" type="DEFAULT_VEHTYPE" speed="13.85" pos="165.60" lane="-VODUGES_beg_0" slope="0.00"/>
        <vehicle id="oncoming2" x="137.85" y="1.65" angle="270.00" type="DEFAULT_VEHTYPE" speed="13.50" pos="62.15" lane="-VODUGES_beg_0" slope="0.00"/>
        <vehicle id="overtaking" x="36.99" y="-1.65" angle="90.00" type="DEFAULT_VEHTYPE" speed="1.65" pos="36.99" lane="VODUGES_beg_0" slope="0.00"/>
        <vehicle id="slow" x="45.59" y="-1.65" angle="90.00" type="slow" speed="0.73" pos="45.59" lane="VODUGES_beg_0" slope="0.00"/>
    </timestep>
    <timestep time="9.00">
        <vehicle id="oncoming1" x="21.15" y="1.65" angle="270.00" type="DEFAULT_VEHTYPE" speed="12.65" pos="178.85" lane="-VODUGES_beg_0" slope="0.00"/>
        <vehicle id="oncoming2" x="124.18" y="1.65" angle="270.00" type="DEFAULT_VEHTYPE" speed="13.85" pos="75.82" lane="-VODUGES_beg_0" slope="0.00"/>
        <vehicle id="overtaking" x="38.09" y="-1.65" angle="90.00" type="DEFAULT_VEHTYPE" speed="0.54" pos="38.09" lane="VODUGES_beg_0" slope="0.00"/>
        <vehicle id="slow" x="46.27" y="-1.65" angle="90.00" type="slow" speed="0.62" pos="46.27" lane="VODUGES_beg_0" slope="0.00"/>
    </timestep>
    <timestep time="10.00">
        <vehicle id="oncoming1" x="7.97" y="1.65" angle="270.00" type="DEFAULT_VEHTYPE" speed="13.72" pos="192.03" lane="-VODUGES_beg_0" slope="0.00"/>
        <vehicle id="oncoming2" x="110.39" y="1.65" angle="270.00" type="DEFAULT_VEHTYPE" speed="13.73" pos="89.61" lane="-VODUGES_beg_0" slope="0.00"/>
        <vehicle id="overtaking" x="38.68" y="-1.65" angle="90.00" type="DEFAULT_VEHTYPE" speed="0.64" pos="38.68" lane="VODUGES_beg_0" slope="0.00"/>
        <vehicle id="slow" x="46.91" y="-1.65" angle="90.00" type="slow" speed="0.66" pos="46.91" lane="VODUGES_beg_0" slope="0.00"/>
    </timestep>
    <timestep time="11.00">
        <vehicle id="oncoming2" x="96.72" y="1.65" angle="270.00" type="DEFAULT_VEHTYPE" speed="13.60" pos="103.28" lane="-VODUGES_beg_0" slope="0.00"/>
        <vehicle id="overtaking" x="39.20" y="-1.65" angle="90.00" type="DEFAULT_VEHTYPE" speed="0.40" pos="39.20" lane="VODUGES_beg_0" slope="0.00"/>
        <vehicle id="slow" x="47.63" y="-1.65" angle="90.00" type="slow" speed="0.79" pos="47.63" lane="VODUGES_beg_0" slope="0.00"/>
    </timestep>
    <timestep time="12.00">
        <vehicle id="oncoming2" x="83.14" y="1.65" angle="270.00" type="DEFAULT_VEHTYPE" speed="13.58" pos="116.86" lane="-VODUGES_beg_0" slope="0.00"/>
        <vehicle id="overtaking" x="39.85" y="-1.65" angle="90.00" type="DEFAULT_VEHTYPE" speed="0.89" pos="39.85" lane="VODUGES_beg_0" slope="0.00"/>
        <vehicle id="slow" x="48.49" y="-1.65" angle="90.00" type="slow" speed="0.92" pos="48.49" lane="VODUGES_beg_0" slope="0.00"/>
    </timestep>
    <timestep time="13.00">
        <vehicle id="oncoming2" x="69.84" y="1.65" angle="270.00" type="DEFAULT_VEHTYPE" speed="13.02" pos="130.16" lane="-VODUGES_beg_0" slope="0.00"/>
        <vehicle id="overtaking" x="40.88" y="-1.65" angle="90.00" type="DEFAULT_VEHTYPE" speed="1.18" pos="40.88" lane="VODUGES_beg_0" slope="0.00"/>
        <vehicle id="slow" x="49.24" y="-1.65" angle="90.00" type="slow" speed="0.59" pos="49.24" lane="VODUGES_beg_0" slope="0.00"/>
    </timestep>
    <timestep time="14.00">
        <vehicle id="oncoming2" x="56.83" y="1.65" angle="270.00" type="DEFAULT_VEHTYPE" speed="12.99" pos="143.17" lane="-VODUGES_beg_0" slope="0.00"/>
        <vehicle id="overtaking" x="41.66" y="-1.65" angle="90.00" type="DEFAULT_VEHTYPE" speed="0.39" pos="41.66" lane="VODUGES_beg_0" slope="0.00"/>
        <vehicle id="slow" x="49.86" y="-1.65" angle="90.00" type="slow" speed="0.64" pos="49.86" lane="VODUGES_beg_0" slope="0.00"/>
    </timestep>
    <timestep time="15.00">
        <vehicle id="oncoming2" x="43.59" y="1.65" angle="270.00" type="DEFAULT_VEHTYPE" speed="13.49" pos="156.41" lane="-VODUGES_beg_0" slope="0.00"/>
        <vehicle id="overtaking" x="42.09" y="-1.65" angle="90.00" type="DEFAULT_VEHTYPE" speed="0.47" pos="42.09" lane="VODUGES_beg_0" slope="0.00"/>
        <vehicle id="slow" x="50.45" y="-1.65" angle="90.00" type="slow" speed="0.53" pos="50.45" lane="VODUGES_beg_0" slope="0.00"/>
    </timestep>
    <timestep time="16.00">
        <vehicle id="oncoming2" x="30.01" y="1.65" angle="270.00" type="DEFAULT_VEHTYPE" speed="13.67" pos="169.99" lane="-VODUGES_beg_0" slope="0.00"/>
        <vehicle id="overtaking" x="42.70" y="-1.65" angle="90.00" type="DEFAULT_VEHTYPE" speed="0.74" pos="42.70" lane="VODUGES_beg_0" slope="0.00"/>
        <vehicle id="slow" x="51.09" y="-1.65" angle="90.00" type="slow" speed="0.75" pos="51.09" lane="VODUGES_beg_0" slope="0.00"/>
    </timestep>
    <timestep time="17.00">
        <vehicle id="oncoming2" x="16.65" y="1.65" angle="270.00" type="DEFAULT_VEHTYPE" speed="13.06" pos="183.35" lane="-VODUGES_beg_0" slope="0.00"/>
        <vehicle id="overtaking" x="43.51" y="-1.65" angle="90.00" type="DEFAULT_VEHTYPE" speed="0.86" pos="43.51" lane="VODUGES_beg_0" slope="0.00"/>
        <vehicle id="slow" x="51.73" y="-1.65" angle="90.00" type="slow" speed="0.52" pos="51.73" lane="VODUGES_beg_0" slope="0.00"/>
    </timestep>
    <timestep time="18.00">
        <vehicle id="oncoming2" x="3.35" y="1.65" angle="270.00" type="DEFAULT_VEHTYPE" speed="13.53" pos="196.65" lane="-VODUGES_beg_0" slope="0.00"/>
        <vehicle id="overtaking" x="44.22" y="-1.65" angle="90.00" type="DEFAULT_VEHTYPE" speed="0.56" pos="44.22" lane="VODUGES_beg_0" slope="0.00"/>
        <vehicle id="slow" x="52.45" y="-1.65" angle="90.00" type="slow" speed="0.92" pos="52.45" lane="VODUGES_beg_0" slope="0.00"/>
    </timestep>
    <timestep time="19.00">
        <vehicle id="overtaking" x="44.74" y="-1.65" angle="90.00" type="DEFAULT_VEHTYPE" speed="0.49" pos="44.74" lane="VODUGES_beg_0" slope="0.00"/>
        <vehicle id="slow" x="53.28" y="-1.65" angle="90.00" type="slow" speed="0.73" pos="53.28" lane="VODUGES_beg_0" slope="0.00"/>
    </timestep>
    <timestep time="20.00">
        <vehicle id="overtaking" x="45.32" y="-1.65" angle="90.00" type="DEFAULT_VEHTYPE" speed="0.66" pos="45.32" lane="VODUGES_beg_0" slope="0.00"/>
        <vehicle id="slow" x="54.10" y="-1.65" angle="90.00" type="slow" speed="0.91" pos="54.10" lane="VODUGES_beg_0" slope="0.00"/>
    </timestep>
    <timestep time="21.00">
        <vehicle id="overtaking" x="46.29" y="-1.65" angle="90.00" type="DEFAULT_VEHTYPE" speed="1.28" pos="46.29" lane="VODUGES_beg_0" slope="0.00"/>
        <vehicle id="slow" x="54.97" y="-1.65" angle="90.00" type="slow" speed="0.84" pos="54.97" lane="VODUGES_beg_0" slope="0.00"/>
    </timestep>
    <timestep time="22.00">
        <vehicle id="overtaking" x="47.29" y="-1.65" angle="90.00" type="DEFAULT_VEHTYPE" speed="0.72" pos="47.29" lane="VODUGES_beg_0" slope="0.00"/>
        <vehicle id="slow" x="55.87" y="-1.65" angle="90.00" type="slow" speed="0.96" pos="55.87" lane="VODUGES_beg_0" slope="0.00"/>
    </timestep>
    <timestep time="23.00">
        <vehicle id="overtaking" x="48.24" y="-1.65" angle="90.00" type="DEFAULT_VEHTYPE" speed="1.16" pos="48.24" lane="VODUGES_beg_0" slope="0.00"/>
        <vehicle id="slow" x="56.80" y="-1.65" angle="90.00" type="slow" speed="0.90" pos="56.80" lane="VODUGES_beg_0" slope="0.00"/>
    </timestep>
    <timestep time="24.00">
        <vehicle id="overtaking" x="49.27" y="-1.65" angle="90.00" type="DEFAULT_VEHTYPE" speed="0.91" pos="49.27" lane="VODUGES_beg_0" slope="0.00"/>
        <vehicle id="slow" x="57.74" y="-1.65" angle="90.00" type="slow" speed="0.98" pos="57.74" lane="VODUGES_beg_0" slope="0.00"/>
    </timestep>
    <timestep time="25.00">
        <vehicle id="overtaking" x="50.14" y="1.65" angle="90.00" type="DEFAULT_VEHTYPE" speed="0.83" pos="149.86" lane="-VODUGES_beg_0" slope="0.00"/>
        <vehicle id="slow" x="58.54" y="-1.65" angle="90.00" type="slow" speed="0.64" pos="58.54" lane="VODUGES_beg_0" slope="0.00"/>
    </timestep>
    <timestep time="26.00">
        <vehicle id="overtaking" x="52.08" y="1.65" angle="90.00" type="DEFAULT_VEHTYPE" speed="3.05" pos="147.92" lane="-VODUGES_beg_0" slope="0.00"/>
        <vehicle id="slow" x="59.31" y="-1.65" angle="90.00" type="slow" speed="0.89" pos="59.31" lane="VODUGES_beg_0" slope="0.00"/>
    </timestep>
    <timestep time="27.00">
        <vehicle id="overtaking" x="55.99" y="1.65" angle="90.00" type="DEFAULT_VEHTYPE" speed="4.77" pos="144.01" lane="-VODUGES_beg_0" slope="0.00"/>
        <vehicle id="slow" x="60.15" y="-1.65" angle="90.00" type="slow" speed="0.79" pos="60.15" lane="VODUGES_beg_0" slope="0.00"/>
    </timestep>
    <timestep time="28.00">
        <vehicle id="overtaking" x="61.67" y="1.65" angle="90.00" type="DEFAULT_VEHTYPE" speed="6.57" pos="138.33" lane="-VODUGES_beg_0" slope="0.00"/>
        <vehicle id="slow" x="60.94" y="-1.65" angle="90.00" type="slow" speed="0.79" pos="60.94" lane="VODUGES_beg_0" slope="0.00"/>
    </timestep>
    <timestep time="29.00">
        <vehicle id="overtaking" x="69.21" y="-1.65" angle="90.00" type="DEFAULT_VEHTYPE" speed="8.51" pos="69.21" lane="VODUGES_beg_0" slope="0.00"/>
        <vehicle id="slow" x="61.63" y="-1.65" angle="90.00" type="slow" speed="0.59" pos="61.63" lane="VODUGES_beg_0" slope="0.00"/>
    </timestep>
    <timestep time="30.00">
        <vehicle id="overtaking" x="78.63" y="-1.65" angle="90.00" type="DEFAULT_VEHTYPE" speed="10.35" pos="78.63" lane="VODUGES_beg_0" slope="0.00"/>
        <vehicle id="slow" x="62.32" y="-1.65" angle="90.00" type="slow" speed="0.79" pos="62.32" lane="VODUGES_beg_0" slope="0.00"/>
    </timestep>
    <timestep time="31.00">
        <vehicle id="overtaking" x="90.04" y="-1.65" angle="90.00" type="DEFAULT_VEHTYPE" speed="12.47" pos="90.04" lane="VODUGES_beg_0" slope="0.00"/>
        <vehicle id="slow" x="62.97" y="-1.65" angle="90.00" type="slow" speed="0.51" pos="62.97" lane="VODUGES_beg_0" slope="0.00"/>
    </timestep>
    <timestep time="32.00">
        <vehicle id="overtaking" x="103.20" y="-1.65" angle="90.00" type="DEFAULT_VEHTYPE" speed="13.86" pos="103.20" lane="VODUGES_beg_0" slope="0.00"/>
        <vehicle id="slow" x="63.65" y="-1.65" angle="90.00" type="slow" speed="0.85" pos="63.65" lane="VODUGES_beg_0" slope="0.00"/>
    </timestep>
    <timestep time="33.00">
        <vehicle id="overtaking" x="117.01" y="-1.65" angle="90.00" type="DEFAULT_VEHTYPE" speed="13.75" pos="117.01" lane="VODUGES_beg_0" slope="0.00"/>
        <vehicle id="slow" x="64.35" y="-1.65" angle="90.00" type="slow" speed="0.56" pos="64.35" lane="VODUGES_beg_0" slope="0.00"/>
    </timestep>
    <timestep time="34.00">
        <vehicle id="overtaking" x="130.43" y="-1.65" angle="90.00" type="DEFAULT_VEHTYPE" speed="13.08" pos="130.43" lane="VODUGES_beg_0" slope="0.00"/>
        <vehicle id="slow" x="64.90" y="-1.65" angle="90.00" type="slow" speed="0.54" pos="64.90" lane="VODUGES_beg_0" slope="0.00"/>
    </timestep>
    <timestep time="35.00">
        <vehicle id="overtaking" x="143.59" y="-1.65" angle="90.00" type="DEFAULT_VEHTYPE" speed="13.25" pos="143.59" lane="VODUGES_beg_0" slope="0.00"/>
        <vehicle id="slow" x="65.57" y="-1.65" angle="90.00" type="slow" speed="0.79" pos="65.57" lane="VODUGES_beg_0" slope="0.00"/>
    </timestep>
    <timestep time="36.00">
        <vehicle id="overtaking" x="156.70" y="-1.65" angle="90.00" type="DEFAULT_VEHTYPE" speed="12.97" pos="156.70" lane="VODUGES_beg_0" slope="0.00"/>
        <vehicle id="slow" x="66.35" y="-1.65" angle="90.00" type="slow" speed="0.77" pos="66.35" lane="VODUGES_beg_0" slope="0.00"/>
    </timestep>
    <timestep time="37.00">
        <vehicle id="overtaking" x="169.56" y="-1.65" angle="90.00" type="DEFAULT_VEHTYPE" speed="12.75" pos="169.56" lane="VODUGES_beg_0" slope="0.00"/>
        <vehicle id="slow" x="67.09" y="-1.65" angle="90.00" type="slow" speed="0.71" pos="67.09" lane="VODUGES_beg_0" slope="0.00"/>
    </timestep>
    <timestep time="38.00">
        <vehicle id="overtaking" x="182.25" y="-1.65" angle="90.00" type="DEFAULT_VEHTYPE" speed="12.63" pos="182.25" lane="VODUGES_beg_0" slope="0.00"/>
        <vehicle id="slow" x="67.87" y="-1.65" angle="90.00" type="slow" speed="0.85" pos="67.87" lane="VODUGES_beg_0" slope="0.00"/>
    </timestep>
    <timestep time="39.00">
        <vehicle id="overtaking" x="195.24" y="-1.65" angle="90.00" type="DEFAULT_VEHTYPE" speed="13.36" pos="195.24" lane="VODUGES_beg_0" slope="0.00"/>
        <vehicle id="slow" x="68.71" y="-1.65" angle="90.00" type="slow" speed="0.83" pos="68.71" lane="VODUGES_beg_0" slope="0.00"/>
    </timestep>
    <timestep time="40.00">
        <vehicle id="slow" x="69.60" y="-1.65" angle="90.00" type="slow" speed="0.95" pos="69.60" lane="VODUGES_beg_0" slope="0.00"/>
    </timestep>
    <timestep time="41.00">
        <vehicle id="slow" x="70.46" y="-1.65" angle="90.00" type="slow" speed="0.77" pos="70.46" lane="VODUGES_beg_0" slope="0.00"/>
    </timestep>
    <timestep time="42.00">
        <vehicle id="slow" x="71.18" y="-1.65" angle="90.00" type="slow" speed="0.67" pos="71.18" lane="VODUGES_beg_0" slope="0.00"/>
    </timestep>
    <timestep time="43.00">
        <vehicle id="slow" x="71.82" y="-1.65" angle="90.00" type="slow" speed="0.61" pos="71.82" lane="VODUGES_beg_0" slope="0.00"/>
    </timestep>
    <timestep time="44.00">
        <vehicle id="slow" x="72.55" y="-1.65" angle="90.00" type="slow" speed="0.86" pos="72.55" lane="VODUGES_beg_0" slope="0.00"/>
    </timestep>
    <timestep time="45.00">
        <vehicle id="slow" x="73.30" y="-1.65" angle="90.00" type="slow" speed="0.64" pos="73.30" lane="VODUGES_beg_0" slope="0.00"/>
    </timestep>
    <timestep time="46.00">
        <vehicle id="slow" x="74.09" y="-1.65" angle="90.00" type="slow" speed="0.94" pos="74.09" lane="VODUGES_beg_0" slope="0.00"/>
    </timestep>
    <timestep time="47.00">
        <vehicle id="slow" x="74.88" y="-1.65" angle="90.00" type="slow" speed="0.64" pos="74.88" lane="VODUGES_beg_0" slope="0.00"/>
    </timestep>
    <timestep time="48.00">
        <vehicle id="slow" x="75.67" y="-1.65" angle="90.00" type="slow" speed="0.93" pos="75.67" lane="VODUGES_beg_0" slope="0.00"/>
    </timestep>
    <timestep time="49.00">
        <vehicle id="slow" x="76.41" y="-1.65" angle="90.00" type="slow" speed="0.56" pos="76.41" lane="VODUGES_beg_0" slope="0.00"/>
    </timestep>
    <timestep time="50.00">
        <vehicle id="slow" x="77.10" y="-1.65" angle="90.00" type="slow" speed="0.81" pos="77.10" lane="VODUGES_beg_0" slope="0.00"/>
    </timestep>
    <timestep time="51.00">
        <vehicle id="slow" x="77.89" y="-1.65" angle="90.00" type="slow" speed="0.76" pos="77.89" lane="VODUGES_beg_0" slope="0.00"/>
    </timestep>
    <timestep time="52.00">
        <vehicle id="slow" x="78.76" y="-1.65" angle="90.00" type="slow" speed="0.98" pos="78.76" lane="VODUGES_beg_0" slope="0.00"/>
    </timestep>
    <timestep time="53.00">
        <vehicle id="slow" x="79.65" y="-1.65" angle="90.00" type="slow" speed="0.80" pos="79.65" lane="VODUGES_beg_0" slope="0.00"/>
    </timestep>
    <timestep time="54.00">
        <vehicle id="slow" x="80.38" y="-1.65" angle="90.00" type="slow" speed="0.66" pos="80.38" lane="VODUGES_beg_0" slope="0.00"/>
    </timestep>
    <timestep time="55.00">
        <vehicle id="slow" x="80.97" y="-1.65" angle="90.00" type="slow" speed="0.51" pos="80.97" lane="VODUGES_beg_0" slope="0.00"/>
    </timestep>
    <timestep time="56.00">
        <vehicle id="slow" x="81.51" y="-1.65" angle="90.00" type="slow" speed="0.58" pos="81.51" lane="VODUGES_beg_0" slope="0.00"/>
    </timestep>
    <timestep time="57.00">
        <vehicle id="slow" x="82.26" y="-1.65" angle="90.00" type="slow" speed="0.92" pos="82.26" lane="VODUGES_beg_0" slope="0.00"/>
    </timestep>
    <timestep time="58.00">
        <vehicle id="slow" x="83.00" y="-1.65" angle="90.00" type="slow" speed="0.55" pos="83.00" lane="VODUGES_beg_0" slope="0.00"/>
    </timestep>
    <timestep time="59.00">
        <vehicle id="slow" x="83.69" y="-1.65" angle="90.00" type="slow" speed="0.83" pos="83.69" lane="VODUGES_beg_0" slope="0.00"/>
    </timestep>
    <timestep time="60.00">
        <vehicle id="slow" x="84.43" y="-1.65" angle="90.00" type="slow" speed="0.67" pos="84.43" lane="VODUGES_beg_0" slope="0.00"/>
    </timestep>
    <timestep time="61.00">
        <vehicle id="slow" x="85.16" y="-1.65" angle="90.00" type="slow" speed="0.78" pos="85.16" lane="VODUGES_beg_0" slope="0.00"/>
    </timestep>
    <timestep time="62.00">
        <vehicle id="slow" x="85.91" y="-1.65" angle="90.00" type="slow" speed="0.71" pos="85.91" lane="VODUGES_beg_0" slope="0.00"/>
    </timestep>
    <timestep time="63.00">
        <vehicle id="slow" x="86.69" y="-1.65" angle="90.00" type="slow" speed="0.86" pos="86.69" lane="VODUGES_beg_0" slope="0.00"/>
    </timestep>
    <timestep time="64.00">
        <vehicle id="slow" x="87.52" y="-1.65" angle="90.00" type="slow" speed="0.81" pos="87.52" lane="VODUGES_beg_0" slope="0.00"/>
    </timestep>
    <timestep time="65.00">
        <vehicle id="slow" x="88.26" y="-1.65" angle="90.00" type="slow" speed="0.66" pos="88.26" lane="VODUGES_beg_0" slope="0.00"/>
    </timestep>
    <timestep time="66.00">
        <vehicle id="slow" x="88.94" y="-1.65" angle="90.00" type="slow" speed="0.70" pos="88.94" lane="VODUGES_beg_0" slope="0.00"/>
    </timestep>
    <timestep time="67.00">
        <vehicle id="slow" x="89.65" y="-1.65" angle="90.00" type="slow" speed="0.71" pos="89.65" lane="VODUGES_beg_0" slope="0.00"/>
    </timestep>
    <timestep time="68.00">
        <vehicle id="slow" x="90.48" y="-1.65" angle="90.00" type="slow" speed="0.95" pos="90.48" lane="VODUGES_beg_0" slope="0.00"/>
    </timestep>
    <timestep time="69.00">
        <vehicle id="slow" x="91.24" y="-1.65" angle="90.00" type="slow" speed="0.57" pos="91.24" lane="VODUGES_beg_0" slope="0.00"/>
    </timestep>
    <timestep time="70.00">
        <vehicle id="slow" x="91.87" y="-1.65" angle="90.00" type="slow" speed="0.68" pos="91.87" lane="VODUGES_beg_0" slope="0.00"/>
    </timestep>
    <timestep time="71.00">
        <vehicle id="slow" x="92.50" y="-1.65" angle="90.00" type="slow" speed="0.59" pos="92.50" lane="VODUGES_beg_0" slope="0.00"/>
    </timestep>
    <timestep time="72.00">
        <vehicle id="slow" x="93.06" y="-1.65" angle="90.00" type="slow" speed="0.53" pos="93.06" lane="VODUGES_beg_0" slope="0.00"/>
    </timestep>
    <timestep time="73.00">
        <vehicle id="slow" x="93.69" y="-1.65" angle="90.00" type="slow" speed="0.73" pos="93.69" lane="VODUGES_beg_0" slope="0.00"/>
    </timestep>
    <timestep time="74.00">
        <vehicle id="slow" x="94.54" y="-1.65" angle="90.00" type="slow" speed="0.99" pos="94.54" lane="VODUGES_beg_0" slope="0.00"/>
    </timestep>
    <timestep time="75.00">
        <vehicle id="slow" x="95.30" y="-1.65" angle="90.00" type="slow" speed="0.51" pos="95.30" lane="VODUGES_beg_0" slope="0.00"/>
    </timestep>
    <timestep time="76.00">
        <vehicle id="slow" x="95.83" y="-1.65" angle="90.00" type="slow" speed="0.56" pos="95.83" lane="VODUGES_beg_0" slope="0.00"/>
    </timestep>
    <timestep time="77.00">
        <vehicle id="slow" x="96.49" y="-1.65" angle="90.00" type="slow" speed="0.76" pos="96.49" lane="VODUGES_beg_0" slope="0.00"/>
    </timestep>
    <timestep time="78.00">
        <vehicle id="slow" x="97.14" y="-1.65" angle="90.00" type="slow" speed="0.55" pos="97.14" lane="VODUGES_beg_0" slope="0.00"/>
    </timestep>
    <timestep time="79.00">
        <vehicle id="slow" x="97.87" y="-1.65" angle="90.00" type="slow" speed="0.92" pos="97.87" lane="VODUGES_beg_0" slope="0.00"/>
    </timestep>
    <timestep time="80.00">
        <vehicle id="slow" x="98.74" y="-1.65" angle="90.00" type="slow" speed="0.83" pos="98.74" lane="VODUGES_beg_0" slope="0.00"/>
    </timestep>
    <timestep time="81.00">
        <vehicle id="slow" x="99.46" y="-1.65" angle="90.00" type="slow" speed="0.60" pos="99.46" lane="VODUGES_beg_0" slope="0.00"/>
    </timestep>
    <timestep time="82.00">
        <vehicle id="slow" x="100.14" y="-1.65" angle="90.00" type="slow" speed="0.76" pos="100.14" lane="VODUGES_beg_0" slope="0.00"/>
    </timestep>
    <timestep time="83.00">
        <vehicle id="slow" x="100.94" y="-1.65" angle="90.00" type="slow" speed="0.83" pos="100.94" lane="VODUGES_beg_0" slope="0.00"/>
    </timestep>
    <timestep time="84.00">
        <vehicle id="slow" x="101.85" y="-1.65" angle="90.00" type="slow" speed="1.00" pos="101.85" lane="VODUGES_beg_0" slope="0.00"/>
    </timestep>
    <timestep time="85.00">
        <vehicle id="slow" x="102.69" y="-1.65" angle="90.00" type="slow" speed="0.67" pos="102.69" lane="VODUGES_beg_0" slope="0.00"/>
    </timestep>
    <timestep time="86.00">
        <vehicle id="slow" x="103.29" y="-1.65" angle="90.00" type="slow" speed="0.54" pos="103.29" lane="VODUGES_beg_0" slope="0.00"/>
    </timestep>
    <timestep time="87.00">
        <vehicle id="slow" x="104.06" y="-1.65" angle="90.00" type="slow" speed="0.99" pos="104.06" lane="VODUGES_beg_0" slope="0.00"/>
    </timestep>
    <timestep time="88.00">
        <vehicle id="slow" x="104.94" y="-1.65" angle="90.00" type="slow" speed="0.76" pos="104.94" lane="VODUGES_beg_0" slope="0.00"/>
    </timestep>
    <timestep time="89.00">
        <vehicle id="slow" x="105.59" y="-1.65" angle="90.00" type="slow" speed="0.55" pos="105.59" lane="VODUGES_beg_0" slope="0.00"/>
    </timestep>
    <timestep time="90.00">
        <vehicle id="slow" x="106.26" y="-1.65" angle="90.00" type="slow" speed="0.79" pos="106.26" lane="VODUGES_beg_0" slope="0.00"/>
    </timestep>
    <timestep time="91.00">
        <vehicle id="slow" x="107.13" y="-1.65" angle="90.00" type="slow" speed="0.94" pos="107.13" lane="VODUGES_beg_0" slope="0.00"/>
    </timestep>
    <timestep time="92.00">
        <vehicle id="slow" x="107.89" y="-1.65" angle="90.00" type="slow" speed="0.57" pos="107.89" lane="VODUGES_beg_0" slope="0.00"/>
    </timestep>
    <timestep time="93.00">
        <vehicle id="slow" x="108.47" y="-1.65" angle="90.00" type="slow" speed="0.59" pos="108.47" lane="VODUGES_beg_0" slope="0.00"/>
    </timestep>
    <timestep time="94.00">
        <vehicle id="slow" x="109.16" y="-1.65" angle="90.00" type="slow" speed="0.80" pos="109.16" lane="VODUGES_beg_0" slope="0.00"/>
    </timestep>
    <timestep time="95.00">
        <vehicle id="slow" x="109.82" y="-1.65" angle="90.00" type="slow" speed="0.50" pos="109.82" lane="VODUGES_beg_0" slope="0.00"/>
    </timestep>
    <timestep time="96.00">
        <vehicle id="slow" x="110.45" y="-1.65" angle="90.00" type="slow" speed="0.76" pos="110.45" lane="VODUGES_beg_0" slope="0.00"/>
    </timestep>
    <timestep time="97.00">
        <vehicle id="slow" x="111.09" y="-1.65" angle="90.00" type="slow" speed="0.53" pos="111.09" lane="VODUGES_beg_0" slope="0.00"/>
    </timestep>
    <timestep time="98.00">
        <vehicle id="slow" x="111.66" y="-1.65" angle="90.00" type="slow" speed="0.61" pos="111.66" lane="VODUGES_beg_0" slope="0.00"/>
    </timestep>
    <timestep time="99.00">
        <vehicle id="slow" x="112.35" y="-1.65" angle="90.00" type="slow" speed="0.77" pos="112.35" lane="VODUGES_beg_0" slope="0.00"/>
    </timestep>
    <timestep time="100.00">
        <vehicle id="slow" x="113.02" y="-1.65" angle="90.00" type="slow" speed="0.58" pos="113.02" lane="VODUGES_beg_0" slope="0.00"/>
    </timestep>
    <timestep time="101.00">
        <vehicle id="slow" x="113.73" y="-1.65" angle="90.00" type="slow" speed="0.83" pos="113.73" lane="VODUGES_beg_0" slope="0.00"/>
    </timestep>
    <timestep time="102.00">
        <vehicle id="slow" x="114.59" y="-1.65" angle="90.00" type="slow" speed="0.90" pos="114.59" lane="VODUGES_beg_0" slope="0.00"/>
    </timestep>
    <timestep time="103.00">
        <vehicle id="slow" x="115.50" y="-1.65" angle="90.00" type="slow" speed="0.92" pos="115.50" lane="VODUGES_beg_0" slope="0.00"/>
    </timestep>