<?xml version="1.0" encoding="UTF-8"?>

<!-- generated on Tue Apr  5 13:59:46 2016 by SUMO Version dev-SVN-r20343
<?xml version="1.0" encoding="UTF-8"?>

<configuration xmlns:xsi="http://www.w3.org/2001/XMLSchema-instance" xsi:noNamespaceSchemaLocation="http://sumo.dlr.de/xsd/sumoConfiguration.xsd">

    <input>
        <net-file value="three_split.net.xml"/>
        <additional-files value="input_routes.rou.xml"/>
    </input>

    <output>
        <vehroute-output value="vehroutes.xml"/>
    </output>

    <time>
        <begin value="0"/>
    </time>

    <processing>
        <euler value="true"/>
    </processing>

    <routing>
        <device.rerouting.explicit value="0,2,4,6,8"/>
    </routing>

    <report>
        <xml-validation value="never"/>
        <duration-log.disable value="true"/>
        <no-step-log value="true"/>
    </report>

</configuration>
-->

<routes xmlns:xsi="http://www.w3.org/2001/XMLSchema-instance" xsi:noNamespaceSchemaLocation="http://sumo.dlr.de/xsd/routes_file.xsd">
    <vehicle id="0" depart="0.00" arrival="95.00">
        <routeDistribution>
            <route replacedOnEdge="" replacedAtTime="0.00" probability="0" edges="beg beg2right right right2end end rend"/>
            <route edges="beg middle end rend"/>
        </routeDistribution>
    </vehicle>

    <vehicle id="2" depart="40.00" arrival="135.00">
        <routeDistribution>
            <route replacedOnEdge="" replacedAtTime="40.00" probability="0" edges="beg beg2right right right2end end rend"/>
            <route edges="beg middle end rend"/>
        </routeDistribution>
    </vehicle>

    <vehicle id="4" depart="80.00" arrival="175.00">
        <routeDistribution>
            <route replacedOnEdge="" replacedAtTime="80.00" probability="0" edges="beg beg2right right right2end end rend"/>
            <route edges="beg middle end rend"/>
        </routeDistribution>
    </vehicle>

    <vehicle id="6" depart="120.00" arrival="215.00">
        <routeDistribution>
            <route replacedOnEdge="" replacedAtTime="120.00" probability="0" edges="beg beg2right right right2end end rend"/>
            <route edges="beg middle end rend"/>
        </routeDistribution>
    </vehicle>

    <vehicle id="1" depart="20.00" arrival="227.00">
        <route edges="beg beg2right right right2end end rend"/>
    </vehicle>

    <vehicle id="8" depart="160.00" arrival="255.00">
        <routeDistribution>
            <route replacedOnEdge="" replacedAtTime="160.00" probability="0" edges="beg beg2right right right2end end rend"/>
            <route edges="beg middle end rend"/>
        </routeDistribution>
    </vehicle>

    <vehicle id="3" depart="60.00" arrival="267.00">
        <route edges="beg beg2right right right2end end rend"/>
    </vehicle>

    <vehicle id="5" depart="100.00" arrival="307.00">
        <route edges="beg beg2right right right2end end rend"/>
    </vehicle>

    <vehicle id="7" depart="140.00" arrival="347.00">
        <route edges="beg beg2right right right2end end rend"/>
    </vehicle>

    <vehicle id="9" depart="180.00" arrival="387.00">
        <route edges="beg beg2right right right2end end rend"/>
    </vehicle>

</routes>
