<?xml version="1.0" encoding="UTF-8"?>

<!-- generated on Thu May 12 15:24:56 2016 by SUMO Version dev-SVN-r20713
<?xml version="1.0" encoding="UTF-8"?>

<configuration xmlns:xsi="http://www.w3.org/2001/XMLSchema-instance" xsi:noNamespaceSchemaLocation="http://sumo.dlr.de/xsd/sumoConfiguration.xsd">

    <input>
        <net-file value="net.net.xml"/>
        <route-files value="input_routes.rou.xml"/>
    </input>

    <output>
        <fcd-output value="fcd.xml"/>
        <tripinfo-output value="tripinfos.xml"/>
    </output>

    <report>
        <xml-validation value="never"/>
        <no-step-log value="true"/>
    </report>

</configuration>
-->

<fcd-export xmlns:xsi="http://www.w3.org/2001/XMLSchema-instance" xsi:noNamespaceSchemaLocation="http://sumo.dlr.de/xsd/fcd_file.xsd">
    <timestep time="0.00">
        <vehicle id="oncoming1" x="100.00" y="1.65" angle="270.00" type="DEFAULT_VEHTYPE" speed="0.00" pos="100.00" lane="-VODUGES_beg_0" slope="0.00"/>
        <vehicle id="oncoming2" x="200.00" y="1.65" angle="270.00" type="DEFAULT_VEHTYPE" speed="0.00" pos="0.00" lane="-VODUGES_beg_0" slope="0.00"/>
        <vehicle id="overtaking" x="0.00" y="-1.65" angle="90.00" type="DEFAULT_VEHTYPE" speed="0.00" pos="0.00" lane="VODUGES_beg_0" slope="0.00"/>
        <vehicle id="stopped" x="40.00" y="-1.65" angle="90.00" type="stopper" speed="0.00" pos="40.00" lane="VODUGES_beg_0" slope="0.00"/>
    </timestep>
    <timestep time="1.00">
        <vehicle id="oncoming1" x="98.73" y="1.65" angle="270.00" type="DEFAULT_VEHTYPE" speed="2.54" pos="101.27" lane="-VODUGES_beg_0" slope="0.00"/>
        <vehicle id="oncoming2" x="199.02" y="1.65" angle="270.00" type="DEFAULT_VEHTYPE" speed="1.96" pos="0.98" lane="-VODUGES_beg_0" slope="0.00"/>
        <vehicle id="overtaking" x="0.84" y="-1.65" angle="90.00" type="DEFAULT_VEHTYPE" speed="1.67" pos="0.84" lane="VODUGES_beg_0" slope="0.00"/>
        <vehicle id="stopped" x="40.72" y="-1.65" angle="90.00" type="stopper" speed="1.44" pos="40.72" lane="VODUGES_beg_0" slope="0.00"/>
    </timestep>
    <timestep time="2.00">
        <vehicle id="oncoming1" x="95.37" y="1.65" angle="270.00" type="DEFAULT_VEHTYPE" speed="4.17" pos="104.63" lane="-VODUGES_beg_0" slope="0.00"/>
        <vehicle id="oncoming2" x="195.92" y="1.65" angle="270.00" type="DEFAULT_VEHTYPE" speed="4.24" pos="4.08" lane="-VODUGES_beg_0" slope="0.00"/>
        <vehicle id="overtaking" x="3.78" y="-1.65" angle="90.00" type="DEFAULT_VEHTYPE" speed="4.22" pos="3.78" lane="VODUGES_beg_0" slope="0.00"/>
        <vehicle id="stopped" x="43.08" y="-1.65" angle="90.00" type="stopper" speed="3.27" pos="43.08" lane="VODUGES_beg_0" slope="0.00"/>
    </timestep>
    <timestep time="3.00">
        <vehicle id="oncoming1" x="89.90" y="1.65" angle="270.00" type="DEFAULT_VEHTYPE" speed="6.77" pos="110.10" lane="-VODUGES_beg_0" slope="0.00"/>
        <vehicle id="oncoming2" x="190.82" y="1.65" angle="270.00" type="DEFAULT_VEHTYPE" speed="5.96" pos="9.18" lane="-VODUGES_beg_0" slope="0.00"/>
        <vehicle id="overtaking" x="8.82" y="-1.65" angle="90.00" type="DEFAULT_VEHTYPE" speed="5.85" pos="8.82" lane="VODUGES_beg_0" slope="0.00"/>
        <vehicle id="stopped" x="46.86" y="-1.65" angle="90.00" type="stopper" speed="4.29" pos="46.86" lane="VODUGES_beg_0" slope="0.00"/>
    </timestep>
    <timestep time="4.00">
        <vehicle id="oncoming1" x="82.20" y="1.65" angle="270.00" type="DEFAULT_VEHTYPE" speed="8.63" pos="117.80" lane="-VODUGES_beg_0" slope="0.00"/>
        <vehicle id="oncoming2" x="183.72" y="1.65" angle="270.00" type="DEFAULT_VEHTYPE" speed="8.22" pos="16.28" lane="-VODUGES_beg_0" slope="0.00"/>
        <vehicle id="overtaking" x="15.67" y="-1.65" angle="90.00" type="DEFAULT_VEHTYPE" speed="7.86" pos="15.67" lane="VODUGES_beg_0" slope="0.00"/>
        <vehicle id="stopped" x="49.58" y="-1.65" angle="90.00" type="stopper" speed="1.14" pos="49.58" lane="VODUGES_beg_0" slope="0.00"/>
    </timestep>
    <timestep time="5.00">
        <vehicle id="oncoming1" x="72.84" y="1.65" angle="270.00" type="DEFAULT_VEHTYPE" speed="10.09" pos="127.16" lane="-VODUGES_beg_0" slope="0.00"/>
        <vehicle id="oncoming2" x="174.41" y="1.65" angle="270.00" type="DEFAULT_VEHTYPE" speed="10.40" pos="25.59" lane="-VODUGES_beg_0" slope="0.00"/>
        <vehicle id="overtaking" x="24.79" y="-1.65" angle="90.00" type="DEFAULT_VEHTYPE" speed="10.38" pos="24.79" lane="VODUGES_beg_0" slope="0.00"/>
        <vehicle id="stopped" x="49.72" y="-1.65" angle="90.00" type="stopper" speed="0.00" pos="49.72" lane="VODUGES_beg_0" slope="0.00"/>
    </timestep>
    <timestep time="6.00">
        <vehicle id="oncoming1" x="61.78" y="1.65" angle="270.00" type="DEFAULT_VEHTYPE" speed="12.03" pos="138.22" lane="-VODUGES_beg_0" slope="0.00"/>
        <vehicle id="oncoming2" x="162.91" y="1.65" angle="270.00" type="DEFAULT_VEHTYPE" speed="12.60" pos="37.09" lane="-VODUGES_beg_0" slope="0.00"/>
        <vehicle id="overtaking" x="34.19" y="-1.65" angle="90.00" type="DEFAULT_VEHTYPE" speed="8.42" pos="34.19" lane="VODUGES_beg_0" slope="0.00"/>
        <vehicle id="stopped" x="49.89" y="-1.65" angle="90.00" type="stopper" speed="0.33" pos="49.89" lane="VODUGES_beg_0" slope="0.00"/>
    </timestep>
    <timestep time="7.00">
        <vehicle id="oncoming1" x="49.43" y="1.65" angle="270.00" type="DEFAULT_VEHTYPE" speed="12.67" pos="150.57" lane="-VODUGES_beg_0" slope="0.00"/>
        <vehicle id="oncoming2" x="150.20" y="1.65" angle="270.00" type="DEFAULT_VEHTYPE" speed="12.82" pos="49.80" lane="-VODUGES_beg_0" slope="0.00"/>
        <vehicle id="overtaking" x="40.37" y="-1.65" angle="90.00" type="DEFAULT_VEHTYPE" speed="3.92" pos="40.37" lane="VODUGES_beg_0" slope="0.00"/>
        <vehicle id="stopped" x="49.90" y="-1.65" angle="90.00" type="stopper" speed="0.00" pos="49.90" lane="VODUGES_beg_0" slope="0.00"/>
    </timestep>
    <timestep time="8.00">
        <vehicle id="oncoming1" x="36.51" y="1.65" angle="270.00" type="DEFAULT_VEHTYPE" speed="13.18" pos="163.49" lane="-VODUGES_beg_0" slope="0.00"/>
        <vehicle id="oncoming2" x="137.00" y="1.65" angle="270.00" type="DEFAULT_VEHTYPE" speed="13.58" pos="63.00" lane="-VODUGES_beg_0" slope="0.00"/>
        <vehicle id="overtaking" x="42.38" y="-1.65" angle="90.00" type="DEFAULT_VEHTYPE" speed="0.10" pos="42.38" lane="VODUGES_beg_0" slope="0.00"/>
        <vehicle id="stopped" x="49.90" y="-1.65" angle="90.00" type="stopper" speed="0.00" pos="49.90" lane="VODUGES_beg_0" slope="0.00"/>
    </timestep>
    <timestep time="9.00">
        <vehicle id="oncoming1" x="23.17" y="1.65" angle="270.00" type="DEFAULT_VEHTYPE" speed="13.50" pos="176.83" lane="-VODUGES_beg_0" slope="0.00"/>
        <vehicle id="oncoming2" x="123.76" y="1.65" angle="270.00" type="DEFAULT_VEHTYPE" speed="12.90" pos="76.24" lane="-VODUGES_beg_0" slope="0.00"/>
        <vehicle id="overtaking" x="42.38" y="1.65" angle="90.00" type="DEFAULT_VEHTYPE" speed="0.00" pos="157.62" lane="-VODUGES_beg_0" slope="0.00"/>
        <vehicle id="stopped" x="49.90" y="-1.65" angle="90.00" type="stopper" speed="0.00" pos="49.90" lane="VODUGES_beg_0" slope="0.00"/>
    </timestep>
    <timestep time="10.00">
        <vehicle id="oncoming1" x="10.10" y="1.65" angle="270.00" type="DEFAULT_VEHTYPE" speed="12.65" pos="189.90" lane="-VODUGES_beg_0" slope="0.00"/>
        <vehicle id="oncoming2" x="110.81" y="1.65" angle="270.00" type="DEFAULT_VEHTYPE" speed="13.00" pos="89.19" lane="-VODUGES_beg_0" slope="0.00"/>
        <vehicle id="overtaking" x="43.67" y="1.65" angle="90.00" type="DEFAULT_VEHTYPE" speed="2.56" pos="156.33" lane="-VODUGES_beg_0" slope="0.00"/>
        <vehicle id="stopped" x="49.99" y="-1.65" angle="90.00" type="stopper" speed="0.18" pos="49.99" lane="VODUGES_beg_0" slope="0.00"/>
    </timestep>
    <timestep time="11.00">
        <vehicle id="oncoming2" x="97.64" y="1.65" angle="270.00" type="DEFAULT_VEHTYPE" speed="13.36" pos="102.36" lane="-VODUGES_beg_0" slope="0.00"/>
        <vehicle id="overtaking" x="47.45" y="1.65" angle="90.00" type="DEFAULT_VEHTYPE" speed="5.00" pos="152.55" lane="-VODUGES_beg_0" slope="0.00"/>
        <vehicle id="stopped" x="51.25" y="-1.65" angle="90.00" type="stopper" speed="2.35" pos="51.25" lane="VODUGES_beg_0" slope="0.00"/>
    </timestep>
    <timestep time="12.00">
        <vehicle id="oncoming2" x="84.16" y="1.65" angle="270.00" type="DEFAULT_VEHTYPE" speed="13.60" pos="115.84" lane="-VODUGES_beg_0" slope="0.00"/>
        <vehicle id="overtaking" x="53.57" y="1.65" angle="90.00" type="DEFAULT_VEHTYPE" speed="7.25" pos="146.43" lane="-VODUGES_beg_0" slope="0.00"/>
        <vehicle id="stopped" x="54.27" y="-1.65" angle="90.00" type="stopper" speed="3.69" pos="54.27" lane="VODUGES_beg_0" slope="0.00"/>
    </timestep>
    <timestep time="13.00">
        <vehicle id="oncoming2" x="70.57" y="1.65" angle="270.00" type="DEFAULT_VEHTYPE" speed="13.58" pos="129.43" lane="-VODUGES_beg_0" slope="0.00"/>
        <vehicle id="overtaking" x="61.76" y="1.65" angle="90.00" type="DEFAULT_VEHTYPE" speed="9.11" pos="138.24" lane="-VODUGES_beg_0" slope="0.00"/>
        <vehicle id="stopped" x="58.92" y="-1.65" angle="90.00" type="stopper" speed="5.60" pos="58.92" lane="VODUGES_beg_0" slope="0.00"/>
    </timestep>
    <timestep time="14.00">
        <vehicle id="overtaking" x="72.11" y="1.65" angle="90.00" type="DEFAULT_VEHTYPE" speed="11.60" pos="127.89" lane="-VODUGES_beg_0" slope="0.00"/>
        <vehicle id="stopped" x="65.21" y="-1.65" angle="90.00" type="stopper" speed="6.98" pos="65.21" lane="VODUGES_beg_0" slope="0.00"/>
    </timestep>
    <timestep time="15.00">
        <vehicle id="overtaking" x="84.46" y="-1.65" angle="90.00" type="DEFAULT_VEHTYPE" speed="13.11" pos="84.46" lane="VODUGES_beg_0" slope="0.00"/>
        <vehicle id="stopped" x="73.02" y="-1.65" angle="90.00" type="stopper" speed="8.65" pos="73.02" lane="VODUGES_beg_0" slope="0.00"/>
    </timestep>
    <timestep time="16.00">
        <vehicle id="overtaking" x="97.52" y="-1.65" angle="90.00" type="DEFAULT_VEHTYPE" speed="12.99" pos="97.52" lane="VODUGES_beg_0" slope="0.00"/>
        <vehicle id="stopped" x="82.20" y="-1.65" angle="90.00" type="stopper" speed="9.71" pos="82.20" lane="VODUGES_beg_0" slope="0.00"/>
    </timestep>
    <timestep time="17.00">
        <vehicle id="overtaking" x="110.33" y="-1.65" angle="90.00" type="DEFAULT_VEHTYPE" speed="12.64" pos="110.33" lane="VODUGES_beg_0" slope="0.00"/>
        <vehicle id="stopped" x="92.81" y="-1.65" angle="90.00" type="stopper" speed="11.51" pos="92.81" lane="VODUGES_beg_0" slope="0.00"/>
    </timestep>
    <timestep time="18.00">
        <vehicle id="overtaking" x="123.28" y="-1.65" angle="90.00" type="DEFAULT_VEHTYPE" speed="13.25" pos="123.28" lane="VODUGES_beg_0" slope="0.00"/>
        <vehicle id="stopped" x="104.19" y="-1.65" angle="90.00" type="stopper" speed="11.25" pos="104.19" lane="VODUGES_beg_0" slope="0.00"/>
    </timestep>
    <timestep time="19.00">
        <vehicle id="overtaking" x="136.74" y="-1.65" angle="90.00" type="DEFAULT_VEHTYPE" speed="13.67" pos="136.74" lane="VODUGES_beg_0" slope="0.00"/>
        <vehicle id="stopped" x="115.73" y="-1.65" angle="90.00" type="stopper" speed="11.81" pos="115.73" lane="VODUGES_beg_0" slope="0.00"/>
    </timestep>
    <timestep time="20.00">
        <vehicle id="overtaking" x="150.40" y="-1.65" angle="90.00" type="DEFAULT_VEHTYPE" speed="13.65" pos="150.40" lane="VODUGES_beg_0" slope="0.00"/>
        <vehicle id="stopped" x="128.16" y="-1.65" angle="90.00" type="stopper" speed="13.05" pos="128.16" lane="VODUGES_beg_0" slope="0.00"/>
    </timestep>
    <timestep time="21.00">
        <vehicle id="overtaking" x="164.07" y="-1.65" angle="90.00" type="DEFAULT_VEHTYPE" speed="13.69" pos="164.07" lane="VODUGES_beg_0" slope="0.00"/>
        <vehicle id="stopped" x="141.61" y="-1.65" angle="90.00" type="stopper" speed="13.85" pos="141.61" lane="VODUGES_beg_0" slope="0.00"/>
    </timestep>
    <timestep time="22.00">
        <vehicle id="overtaking" x="177.68" y="-1.65" angle="90.00" type="DEFAULT_VEHTYPE" speed="13.53" pos="177.68" lane="VODUGES_beg_0" slope="0.00"/>
        <vehicle id="stopped" x="155.13" y="-1.65" angle="90.00" type="stopper" speed="13.18" pos="155.13" lane="VODUGES_beg_0" slope="0.00"/>
    </timestep>
    <timestep time="23.00">
        <vehicle id="overtaking" x="190.79" y="-1.65" angle="90.00" type="DEFAULT_VEHTYPE" speed="12.68" pos="190.79" lane="VODUGES_beg_0" slope="0.00"/>
        <vehicle id="stopped" x="168.62" y="-1.65" angle="90.00" type="stopper" speed="13.80" pos="168.62" lane="VODUGES_beg_0" slope="0.00"/>
    </timestep>
    <timestep time="24.00">
        <vehicle id="stopped" x="181.43" y="-1.65" angle="90.00" type="stopper" speed="11.82" pos="181.43" lane="VODUGES_beg_0" slope="0.00"/>
    </timestep>
    <timestep time="25.00">
        <vehicle id="stopped" x="194.08" y="-1.65" angle="90.00" type="stopper" speed="13.48" pos="194.08" lane="VODUGES_beg_0" slope="0.00"/>
    </timestep>
    <timestep time="26.00"/>
</fcd-export>
