<?xml version="1.0" encoding="UTF-8"?>

<!-- generated on Thu May 12 15:24:56 2016 by SUMO Version dev-SVN-r20713
<?xml version="1.0" encoding="UTF-8"?>

<configuration xmlns:xsi="http://www.w3.org/2001/XMLSchema-instance" xsi:noNamespaceSchemaLocation="http://sumo.dlr.de/xsd/sumoConfiguration.xsd">

    <input>
        <net-file value="net.net.xml"/>
        <route-files value="input_routes.rou.xml"/>
    </input>

    <output>
        <fcd-output value="fcd.xml"/>
        <tripinfo-output value="tripinfos.xml"/>
    </output>

    <report>
        <xml-validation value="never"/>
        <no-step-log value="true"/>
    </report>

</configuration>
-->

<tripinfos xmlns:xsi="http://www.w3.org/2001/XMLSchema-instance" xsi:noNamespaceSchemaLocation="http://sumo.dlr.de/xsd/tripinfo_file.xsd">
    <tripinfo id="oncoming1" depart="0.00" departLane="-VODUGES_beg_0" departPos="100.00" departSpeed="0.00" departDelay="0.00" arrival="11.00" arrivalLane="-VODUGES_beg_0" arrivalPos="200.00" arrivalSpeed="13.72" duration="11.00" routeLength="100.00" waitSteps="0" timeLoss="3.08" rerouteNo="0" devices="tripinfo_oncoming1" vType="DEFAULT_VEHTYPE" vaporized=""/>
    <tripinfo id="oncoming2" depart="0.00" departLane="-VODUGES_beg_0" departPos="0.00" departSpeed="0.00" departDelay="0.00" arrival="14.00" arrivalLane="-VODUGES_beg_0" arrivalPos="200.00" arrivalSpeed="9.08" duration="14.00" routeLength="200.00" waitSteps="0" timeLoss="3.88" rerouteNo="0" devices="tripinfo_oncoming2" vType="DEFAULT_VEHTYPE" vaporized=""/>
    <tripinfo id="overtaking" depart="0.00" departLane="VODUGES_beg_0" departPos="0.00" departSpeed="0.00" departDelay="0.00" arrival="24.00" arrivalLane="VODUGES_beg_0" arrivalPos="200.00" arrivalSpeed="13.66" duration="24.00" routeLength="200.00" waitSteps="1" timeLoss="9.12" rerouteNo="0" devices="tripinfo_overtaking" vType="DEFAULT_VEHTYPE" vaporized=""/>
    <tripinfo id="stopped" depart="0.00" departLane="VODUGES_beg_0" departPos="40.00" departSpeed="0.00" departDelay="0.00" arrival="26.00" arrivalLane="VODUGES_beg_0" arrivalPos="200.00" arrivalSpeed="13.45" duration="26.00" routeLength="160.00" waitSteps="1" timeLoss="10.64" rerouteNo="0" devices="tripinfo_stopped" vType="stopper" vaporized=""/>
</tripinfos>
