<?xml version="1.0" encoding="UTF-8"?>

<!-- generated on Tue Apr  5 13:45:10 2016 by SUMO Version dev-SVN-r20343
<?xml version="1.0" encoding="UTF-8"?>

<configuration xmlns:xsi="http://www.w3.org/2001/XMLSchema-instance" xsi:noNamespaceSchemaLocation="http://sumo.dlr.de/xsd/sumoConfiguration.xsd">

    <input>
        <net-file value="three_split.net.xml"/>
        <route-files value="input_routes.rou.xml"/>
        <additional-files value="input_additional.add.xml"/>
    </input>

    <output>
        <vehroute-output value="vehroutes.xml"/>
    </output>

    <report>
        <xml-validation value="never"/>
        <duration-log.disable value="true"/>
        <no-step-log value="true"/>
    </report>

</configuration>
-->

<meandata xmlns:xsi="http://www.w3.org/2001/XMLSchema-instance" xsi:noNamespaceSchemaLocation="http://sumo.dlr.de/xsd/meandata_file.xsd">
    <interval begin="0.00" end="100.00" id="dump25">
        <edge id="beg" sampledSeconds="184.50" traveltime="30.07" density="3.69" occupancy="1.84" waitingTime="45.00" speed="16.63" departed="51" arrived="0" entered="0" left="51" laneChangedFrom="0" laneChangedTo="0" vaporized="45"/>
        <edge id="beg2left" sampledSeconds="0.00" departed="0" arrived="0" entered="0" left="0" laneChangedFrom="0" laneChangedTo="0"/>
        <edge id="beg2right" sampledSeconds="0.00" departed="0" arrived="0" entered="0" left="0" laneChangedFrom="0" laneChangedTo="0"/>
        <edge id="end" sampledSeconds="108.72" traveltime="17.99" density="2.17" occupancy="1.09" waitingTime="0.00" speed="27.80" departed="0" arrived="0" entered="6" left="6" laneChangedFrom="0" laneChangedTo="0"/>
        <edge id="left" sampledSeconds="0.00" departed="0" arrived="0" entered="0" left="0" laneChangedFrom="0" laneChangedTo="0"/>
        <edge id="left2end" sampledSeconds="0.00" departed="0" arrived="0" entered="0" left="0" laneChangedFrom="0" laneChangedTo="0"/>
        <edge id="middle" sampledSeconds="216.93" traveltime="35.97" density="2.17" occupancy="1.08" waitingTime="0.00" speed="27.80" departed="0" arrived="0" entered="6" left="6" laneChangedFrom="0" laneChangedTo="0"/>
        <edge id="rend" sampledSeconds="77.56" traveltime="17.99" density="1.55" occupancy="0.78" waitingTime="0.00" speed="27.80" departed="0" arrived="1" entered="6" left="0" laneChangedFrom="0" laneChangedTo="0"/>
        <edge id="right" sampledSeconds="0.00" departed="0" arrived="0" entered="0" left="0" laneChangedFrom="0" laneChangedTo="0"/>
        <edge id="right2end" sampledSeconds="0.00" departed="0" arrived="0" entered="0" left="0" laneChangedFrom="0" laneChangedTo="0"/>
    </interval>
</meandata>
