<?xml version="1.0" encoding="UTF-8"?>

<!-- generated on Tue Apr  5 13:59:49 2016 by SUMO Version dev-SVN-r20343
<?xml version="1.0" encoding="UTF-8"?>

<configuration xmlns:xsi="http://www.w3.org/2001/XMLSchema-instance" xsi:noNamespaceSchemaLocation="http://sumo.dlr.de/xsd/sumoConfiguration.xsd">

    <input>
        <net-file value="three_split.net.xml"/>
        <route-files value="input_routes.rou.xml"/>
        <additional-files value="input_additional.add.xml"/>
    </input>

    <output>
        <vehroute-output value="vehroutes.xml"/>
    </output>

    <processing>
        <euler value="true"/>
    </processing>

    <report>
        <xml-validation value="never"/>
        <duration-log.disable value="true"/>
        <no-step-log value="true"/>
    </report>

</configuration>
-->

<calibratorstats>
   <interval begin="0.00" end="100.00" id="calibtest" nVehContrib="6" removed="45" inserted="0" cleared="0" flow="216.00" aspiredFlow="200.00" speed="16.32" aspiredSpeed="-1.00"/>
</calibratorstats>
