<?xml version="1.0" encoding="UTF-8"?>

<!-- generated on Fri Sep  9 14:56:25 2016 by SUMO Version dev-SVN-r21424
<?xml version="1.0" encoding="UTF-8"?>

<configuration xmlns:xsi="http://www.w3.org/2001/XMLSchema-instance" xsi:noNamespaceSchemaLocation="http://sumo.dlr.de/xsd/sumoConfiguration.xsd">

    <input>
        <net-file value="net.net.xml"/>
        <route-files value="input_routes.rou.xml"/>
        <additional-files value="input_additional.add.xml"/>
    </input>

    <output>
        <tripinfo-output value="tripinfos.xml"/>
    </output>

    <time>
        <end value="1000"/>
    </time>

    <processing>
        <step-method.ballistic value="true"/>
    </processing>

    <report>
        <xml-validation value="never"/>
        <duration-log.disable value="true"/>
        <no-step-log value="true"/>
    </report>

</configuration>
-->

<tripinfos xmlns:xsi="http://www.w3.org/2001/XMLSchema-instance" xsi:noNamespaceSchemaLocation="http://sumo.dlr.de/xsd/tripinfo_file.xsd">
    <tripinfo id="v0" depart="0.00" departLane="gneE0_0" departPos="50.00" departSpeed="0.00" departDelay="0.00" arrival="110.00" arrivalLane="gneE2_0" arrivalPos="278.05" arrivalSpeed="13.60" duration="110.00" routeLength="834.99" waitSteps="0" timeLoss="17.66" rerouteNo="0" devices="tripinfo_v0" vType="busShort" vaporized=""/>
    <tripinfo id="v1" depart="0.00" departLane="gneE0_0" departPos="0.00" departSpeed="0.00" departDelay="0.00" arrival="152.00" arrivalLane="gneE2_0" arrivalPos="278.05" arrivalSpeed="13.55" duration="152.00" routeLength="884.99" waitSteps="31" timeLoss="56.09" rerouteNo="0" devices="tripinfo_v1" vType="bus" vaporized=""/>
</tripinfos>
