<?xml version="1.0" encoding="UTF-8"?>

<!-- generated on Wed Jun  1 10:57:10 2016 by SUMO Version dev-SVN-r20832
<?xml version="1.0" encoding="UTF-8"?>

<configuration xmlns:xsi="http://www.w3.org/2001/XMLSchema-instance" xsi:noNamespaceSchemaLocation="http://sumo.dlr.de/xsd/sumoConfiguration.xsd">

    <input>
        <net-file value="net.net.xml"/>
        <route-files value="input_routes.rou.xml"/>
    </input>

    <output>
        <tripinfo-output value="tripinfos.xml"/>
    </output>

    <time>
        <end value="30"/>
    </time>

    <report>
        <xml-validation value="never"/>
        <duration-log.disable value="true"/>
        <no-step-log value="true"/>
    </report>

</configuration>
-->

<tripinfos xmlns:xsi="http://www.w3.org/2001/XMLSchema-instance" xsi:noNamespaceSchemaLocation="http://sumo.dlr.de/xsd/tripinfo_file.xsd">
    <tripinfo id="ego" depart="0.00" departLane="beg_0" departPos="10.10" departSpeed="0.00" departDelay="0.00" arrival="5.00" arrivalLane="middle_0" arrivalPos="4.00" arrivalSpeed="0.00" duration="5.00" routeLength="18.65" waitSteps="2" timeLoss="4.59" rerouteNo="0" devices="tripinfo_ego" vType="ego" vaporized=""/>
    <tripinfo id="across" depart="0.00" departLane="across1_0" departPos="5.10" departSpeed="0.00" departDelay="0.00" arrival="14.00" arrivalLane="across2_0" arrivalPos="18.55" arrivalSpeed="13.80" duration="14.00" routeLength="114.90" waitSteps="0" timeLoss="4.63" rerouteNo="0" devices="tripinfo_across" vType="DEFAULT_VEHTYPE" vaporized=""/>
</tripinfos>
