<?xml version="1.0" encoding="UTF-8"?>

<!-- generated on Tue Sep 13 12:06:57 2016 by SUMO Version dev-SVN-r21424
<?xml version="1.0" encoding="UTF-8"?>

<configuration xmlns:xsi="http://www.w3.org/2001/XMLSchema-instance" xsi:noNamespaceSchemaLocation="http://sumo.dlr.de/xsd/sumoConfiguration.xsd">

    <input>
        <net-file value="net.net.xml"/>
        <route-files value="input_routes.rou.xml"/>
        <additional-files value="input_additional.add.xml"/>
    </input>

    <output>
        <fcd-output value="fcd.xml"/>
    </output>

    <time>
        <step-length value="0.5"/>
    </time>

    <processing>
        <step-method.ballistic value="true"/>
        <lanechange.duration value="12"/>
    </processing>

    <report>
        <xml-validation value="never"/>
        <duration-log.disable value="true"/>
        <no-step-log value="true"/>
    </report>

</configuration>
-->

<fcd-export xmlns:xsi="http://www.w3.org/2001/XMLSchema-instance" xsi:noNamespaceSchemaLocation="http://sumo.dlr.de/xsd/fcd_file.xsd">
    <timestep time="0.00">
        <vehicle id="v0" x="256.60" y="495.05" angle="90.00" type="DEFAULT_VEHTYPE" speed="0.00" pos="5.10" lane="1si_0" slope="0.00"/>
    </timestep>
    <timestep time="0.50">
        <vehicle id="v0" x="256.93" y="495.05" angle="90.00" type="DEFAULT_VEHTYPE" speed="1.30" pos="5.42" lane="1si_0" slope="0.00"/>
    </timestep>
    <timestep time="1.00">
        <vehicle id="v0" x="257.90" y="495.05" angle="90.00" type="DEFAULT_VEHTYPE" speed="2.60" pos="6.40" lane="1si_0" slope="0.00"/>
    </timestep>
    <timestep time="1.50">
        <vehicle id="v0" x="259.52" y="495.05" angle="90.00" type="DEFAULT_VEHTYPE" speed="3.90" pos="8.03" lane="1si_0" slope="0.00"/>
    </timestep>
    <timestep time="2.00">
        <vehicle id="v0" x="261.80" y="495.05" angle="90.00" type="DEFAULT_VEHTYPE" speed="5.20" pos="10.30" lane="1si_0" slope="0.00"/>
    </timestep>
    <timestep time="2.50">
        <vehicle id="v0" x="264.73" y="495.05" angle="90.00" type="DEFAULT_VEHTYPE" speed="6.50" pos="13.23" lane="1si_0" slope="0.00"/>
    </timestep>
    <timestep time="3.00">
        <vehicle id="v0" x="268.30" y="495.05" angle="90.00" type="DEFAULT_VEHTYPE" speed="7.80" pos="16.80" lane="1si_0" slope="0.00"/>
    </timestep>
    <timestep time="3.50">
        <vehicle id="v0" x="272.52" y="495.05" angle="90.00" type="DEFAULT_VEHTYPE" speed="9.10" pos="21.02" lane="1si_0" slope="0.00"/>
    </timestep>
    <timestep time="4.00">
        <vehicle id="v0" x="277.40" y="495.05" angle="90.00" type="DEFAULT_VEHTYPE" speed="10.40" pos="25.90" lane="1si_0" slope="0.00"/>
    </timestep>
    <timestep time="4.50">
        <vehicle id="v0" x="282.93" y="495.05" angle="90.00" type="DEFAULT_VEHTYPE" speed="11.70" pos="31.42" lane="1si_0" slope="0.00"/>
    </timestep>
    <timestep time="5.00">
        <vehicle id="v0" x="289.10" y="495.05" angle="90.00" type="DEFAULT_VEHTYPE" speed="13.00" pos="37.60" lane="1si_0" slope="0.00"/>
    </timestep>
    <timestep time="5.50">
        <vehicle id="v0" x="295.82" y="495.05" angle="90.00" type="DEFAULT_VEHTYPE" speed="13.89" pos="44.32" lane="1si_0" slope="0.00"/>
    </timestep>
    <timestep time="6.00">
        <vehicle id="v0" x="302.77" y="495.05" angle="90.00" type="DEFAULT_VEHTYPE" speed="13.89" pos="51.27" lane="1si_0" slope="0.00"/>
    </timestep>
    <timestep time="6.50">
        <vehicle id="v0" x="309.71" y="495.05" angle="90.00" type="DEFAULT_VEHTYPE" speed="13.89" pos="58.21" lane="1si_0" slope="0.00"/>
    </timestep>
    <timestep time="7.00">
        <vehicle id="v0" x="316.66" y="495.05" angle="90.00" type="DEFAULT_VEHTYPE" speed="13.89" pos="65.16" lane="1si_0" slope="0.00"/>
    </timestep>
    <timestep time="7.50">
        <vehicle id="v0" x="323.60" y="495.05" angle="90.00" type="DEFAULT_VEHTYPE" speed="13.89" pos="72.10" lane="1si_0" slope="0.00"/>
    </timestep>
    <timestep time="8.00">
        <vehicle id="v0" x="330.55" y="495.05" angle="90.00" type="DEFAULT_VEHTYPE" speed="13.89" pos="79.05" lane="1si_0" slope="0.00"/>
    </timestep>
    <timestep time="8.50">
        <vehicle id="v0" x="337.49" y="495.05" angle="90.00" type="DEFAULT_VEHTYPE" speed="13.89" pos="85.99" lane="1si_0" slope="0.00"/>
    </timestep>
    <timestep time="9.00">
        <vehicle id="v0" x="344.44" y="495.05" angle="90.00" type="DEFAULT_VEHTYPE" speed="13.89" pos="92.94" lane="1si_0" slope="0.00"/>
    </timestep>
    <timestep time="9.50">
        <vehicle id="v0" x="351.38" y="495.05" angle="90.00" type="DEFAULT_VEHTYPE" speed="13.89" pos="99.88" lane="1si_0" slope="0.00"/>
    </timestep>
    <timestep time="10.00">
        <vehicle id="v0" x="358.33" y="495.05" angle="90.00" type="DEFAULT_VEHTYPE" speed="13.89" pos="106.83" lane="1si_0" slope="0.00"/>
    </timestep>
    <timestep time="10.50">
        <vehicle id="v0" x="365.27" y="495.05" angle="90.00" type="DEFAULT_VEHTYPE" speed="13.89" pos="113.77" lane="1si_0" slope="0.00"/>
    </timestep>
    <timestep time="11.00">
        <vehicle id="v0" x="372.22" y="495.05" angle="90.00" type="DEFAULT_VEHTYPE" speed="13.89" pos="120.72" lane="1si_0" slope="0.00"/>
    </timestep>
    <timestep time="11.50">
        <vehicle id="v0" x="379.16" y="495.05" angle="90.00" type="DEFAULT_VEHTYPE" speed="13.89" pos="127.66" lane="1si_0" slope="0.00"/>
    </timestep>
    <timestep time="12.00">
        <vehicle id="v0" x="386.11" y="495.05" angle="90.00" type="DEFAULT_VEHTYPE" speed="13.89" pos="134.61" lane="1si_0" slope="0.00"/>
    </timestep>
    <timestep time="12.50">
        <vehicle id="v0" x="393.05" y="495.05" angle="90.00" type="DEFAULT_VEHTYPE" speed="13.89" pos="141.55" lane="1si_0" slope="0.00"/>
    </timestep>
    <timestep time="13.00">
        <vehicle id="v0" x="400.00" y="495.05" angle="90.00" type="DEFAULT_VEHTYPE" speed="13.89" pos="148.50" lane="1si_0" slope="0.00"/>
    </timestep>
    <timestep time="13.50">
        <vehicle id="v0" x="406.94" y="495.05" angle="90.00" type="DEFAULT_VEHTYPE" speed="13.89" pos="155.44" lane="1si_0" slope="0.00"/>
    </timestep>
    <timestep time="14.00">
        <vehicle id="v0" x="413.89" y="495.05" angle="90.00" type="DEFAULT_VEHTYPE" speed="13.89" pos="162.39" lane="1si_0" slope="0.00"/>
    </timestep>
    <timestep time="14.50">
        <vehicle id="v0" x="420.83" y="495.05" angle="90.00" type="DEFAULT_VEHTYPE" speed="13.89" pos="169.33" lane="1si_0" slope="0.00"/>
    </timestep>
    <timestep time="15.00">
        <vehicle id="v0" x="427.78" y="495.05" angle="90.00" type="DEFAULT_VEHTYPE" speed="13.89" pos="176.28" lane="1si_0" slope="0.00"/>
    </timestep>
    <timestep time="15.50">
        <vehicle id="v0" x="434.72" y="495.05" angle="90.00" type="DEFAULT_VEHTYPE" speed="13.89" pos="183.22" lane="1si_0" slope="0.00"/>
    </timestep>
    <timestep time="16.00">
        <vehicle id="v0" x="441.67" y="495.05" angle="90.00" type="DEFAULT_VEHTYPE" speed="13.89" pos="190.17" lane="1si_0" slope="0.00"/>
    </timestep>
    <timestep time="16.50">
        <vehicle id="v0" x="448.61" y="495.18" angle="89.79" type="DEFAULT_VEHTYPE" speed="13.89" pos="197.11" lane="1si_0" slope="0.00"/>
    </timestep>
    <timestep time="17.00">
        <vehicle id="v0" x="454.99" y="495.32" angle="89.58" type="DEFAULT_VEHTYPE" speed="11.64" pos="203.49" lane="1si_0" slope="0.00"/>
    </timestep>
    <timestep time="17.50">
        <vehicle id="v0" x="460.25" y="495.45" angle="89.38" type="DEFAULT_VEHTYPE" speed="9.39" pos="208.75" lane="1si_0" slope="0.00"/>
    </timestep>
    <timestep time="18.00">
        <vehicle id="v0" x="464.38" y="495.58" angle="89.17" type="DEFAULT_VEHTYPE" speed="7.14" pos="212.88" lane="1si_0" slope="0.00"/>
    </timestep>
    <timestep time="18.50">
        <vehicle id="v0" x="467.39" y="495.72" angle="88.96" type="DEFAULT_VEHTYPE" speed="4.89" pos="215.89" lane="1si_0" slope="0.00"/>
    </timestep>
    <timestep time="19.00">
        <vehicle id="v0" x="469.27" y="495.85" angle="88.75" type="DEFAULT_VEHTYPE" speed="2.64" pos="217.77" lane="1si_0" slope="0.00"/>
    </timestep>
    <timestep time="19.50">
        <vehicle id="v0" x="470.47" y="495.98" angle="88.54" type="DEFAULT_VEHTYPE" speed="2.14" pos="218.97" lane="1si_0" slope="0.00"/>
    </timestep>
    <timestep time="20.00">
        <vehicle id="v0" x="471.54" y="496.12" angle="88.33" type="DEFAULT_VEHTYPE" speed="2.13" pos="220.04" lane="1si_0" slope="0.00"/>
    </timestep>
    <timestep time="20.50">
        <vehicle id="v0" x="472.60" y="496.25" angle="88.12" type="DEFAULT_VEHTYPE" speed="2.13" pos="221.10" lane="1si_0" slope="0.00"/>
    </timestep>
    <timestep time="21.00">
        <vehicle id="v0" x="473.66" y="496.38" angle="87.92" type="DEFAULT_VEHTYPE" speed="2.13" pos="222.16" lane="1si_0" slope="0.00"/>
    </timestep>
    <timestep time="21.50">
        <vehicle id="v0" x="474.73" y="496.52" angle="87.71" type="DEFAULT_VEHTYPE" speed="2.13" pos="223.23" lane="1si_0" slope="0.00"/>
    </timestep>
    <timestep time="22.00">
        <vehicle id="v0" x="475.79" y="496.75" angle="87.50" type="DEFAULT_VEHTYPE" speed="2.13" pos="224.29" lane="1si_1" slope="0.00"/>
    </timestep>
    <timestep time="22.50">
        <vehicle id="v0" x="476.85" y="496.88" angle="87.71" type="DEFAULT_VEHTYPE" speed="2.13" pos="225.35" lane="1si_1" slope="0.00"/>
    </timestep>
    <timestep time="23.00">
        <vehicle id="v0" x="477.92" y="497.02" angle="87.92" type="DEFAULT_VEHTYPE" speed="2.13" pos="226.42" lane="1si_1" slope="0.00"/>
    </timestep>
    <timestep time="23.50">
        <vehicle id="v0" x="478.98" y="497.15" angle="88.12" type="DEFAULT_VEHTYPE" speed="2.13" pos="227.48" lane="1si_1" slope="0.00"/>
    </timestep>
    <timestep time="24.00">
        <vehicle id="v0" x="480.04" y="497.28" angle="88.33" type="DEFAULT_VEHTYPE" speed="2.13" pos="228.54" lane="1si_1" slope="0.00"/>
    </timestep>
    <timestep time="24.50">
        <vehicle id="v0" x="481.11" y="497.42" angle="88.54" type="DEFAULT_VEHTYPE" speed="2.13" pos="229.61" lane="1si_1" slope="0.00"/>
    </timestep>
    <timestep time="25.00">
        <vehicle id="v0" x="482.17" y="497.55" angle="88.75" type="DEFAULT_VEHTYPE" speed="2.13" pos="230.67" lane="1si_1" slope="0.00"/>
    </timestep>
    <timestep time="25.50">
        <vehicle id="v0" x="483.23" y="497.68" angle="88.96" type="DEFAULT_VEHTYPE" speed="2.13" pos="231.73" lane="1si_1" slope="0.00"/>
    </timestep>
    <timestep time="26.00">
        <vehicle id="v0" x="484.57" y="497.82" angle="89.17" type="DEFAULT_VEHTYPE" speed="3.23" pos="233.07" lane="1si_1" slope="0.00"/>
    </timestep>
    <timestep time="26.50">
        <vehicle id="v0" x="486.51" y="497.95" angle="89.38" type="DEFAULT_VEHTYPE" speed="4.53" pos="235.01" lane="1si_1" slope="0.00"/>
    </timestep>
    <timestep time="27.00">
        <vehicle id="v0" x="489.10" y="498.08" angle="89.58" type="DEFAULT_VEHTYPE" speed="5.83" pos="0.45" lane=":0_16_0" slope="0.00"/>
    </timestep>
    <timestep time="27.50">
        <vehicle id="v0" x="492.34" y="498.22" angle="89.79" type="DEFAULT_VEHTYPE" speed="7.13" pos="3.69" lane=":0_16_0" slope="0.00"/>
    </timestep>
    <timestep time="28.00">
        <vehicle id="v0" x="496.23" y="498.35" angle="90.00" type="DEFAULT_VEHTYPE" speed="8.43" pos="7.58" lane=":0_16_0" slope="0.00"/>
    </timestep>
    <timestep time="28.50">
        <vehicle id="v0" x="500.77" y="498.35" angle="90.00" type="DEFAULT_VEHTYPE" speed="9.73" pos="12.12" lane=":0_16_0" slope="0.00"/>
    </timestep>
    <timestep time="29.00">
        <vehicle id="v0" x="505.96" y="498.35" angle="90.00" type="DEFAULT_VEHTYPE" speed="11.03" pos="17.31" lane=":0_16_0" slope="0.00"/>
    </timestep>
    <timestep time="29.50">
        <vehicle id="v0" x="511.50" y="498.35" angle="90.00" type="DEFAULT_VEHTYPE" speed="11.11" pos="0.15" lane="2o_1" slope="0.00"/>
    </timestep>
    <timestep time="30.00">
        <vehicle id="v0" x="517.05" y="498.35" angle="90.00" type="DEFAULT_VEHTYPE" speed="11.11" pos="5.70" lane="2o_1" slope="0.00"/>
    </timestep>
    <timestep time="30.50">
        <vehicle id="v0" x="522.61" y="498.35" angle="90.00" type="DEFAULT_VEHTYPE" speed="11.11" pos="11.26" lane="2o_1" slope="0.00"/>
    </timestep>
    <timestep time="31.00">
        <vehicle id="v0" x="528.16" y="498.35" angle="90.00" type="DEFAULT_VEHTYPE" speed="11.11" pos="16.81" lane="2o_1" slope="0.00"/>
    </timestep>
    <timestep time="31.50">
        <vehicle id="v0" x="533.72" y="498.35" angle="90.00" type="DEFAULT_VEHTYPE" speed="11.11" pos="22.37" lane="2o_1" slope="0.00"/>
    </timestep>
    <timestep time="32.00">
        <vehicle id="v0" x="539.27" y="498.35" angle="90.00" type="DEFAULT_VEHTYPE" speed="11.11" pos="27.92" lane="2o_1" slope="0.00"/>
    </timestep>
    <timestep time="32.50">
        <vehicle id="v0" x="544.83" y="498.35" angle="90.00" type="DEFAULT_VEHTYPE" speed="11.11" pos="33.48" lane="2o_1" slope="0.00"/>
    </timestep>
    <timestep time="33.00">
        <vehicle id="v0" x="550.38" y="498.35" angle="90.00" type="DEFAULT_VEHTYPE" speed="11.11" pos="39.03" lane="2o_1" slope="0.00"/>
    </timestep>
    <timestep time="33.50">
        <vehicle id="v0" x="555.94" y="498.35" angle="90.00" type="DEFAULT_VEHTYPE" speed="11.11" pos="44.59" lane="2o_1" slope="0.00"/>
    </timestep>
    <timestep time="34.00">
        <vehicle id="v0" x="561.49" y="498.35" angle="90.00" type="DEFAULT_VEHTYPE" speed="11.11" pos="50.14" lane="2o_1" slope="0.00"/>
    </timestep>
    <timestep time="34.50">
        <vehicle id="v0" x="567.05" y="498.35" angle="90.00" type="DEFAULT_VEHTYPE" speed="11.11" pos="55.70" lane="2o_1" slope="0.00"/>
    </timestep>
    <timestep time="35.00">
        <vehicle id="v0" x="572.60" y="498.35" angle="90.00" type="DEFAULT_VEHTYPE" speed="11.11" pos="61.25" lane="2o_1" slope="0.00"/>
    </timestep>
    <timestep time="35.50">
        <vehicle id="v0" x="578.16" y="498.35" angle="90.00" type="DEFAULT_VEHTYPE" speed="11.11" pos="66.81" lane="2o_1" slope="0.00"/>
    </timestep>
    <timestep time="36.00">
        <vehicle id="v0" x="583.71" y="498.35" angle="90.00" type="DEFAULT_VEHTYPE" speed="11.11" pos="72.36" lane="2o_1" slope="0.00"/>
    </timestep>
    <timestep time="36.50">
        <vehicle id="v0" x="589.27" y="498.35" angle="90.00" type="DEFAULT_VEHTYPE" speed="11.11" pos="77.92" lane="2o_1" slope="0.00"/>
    </timestep>
    <timestep time="37.00">
        <vehicle id="v0" x="594.82" y="498.35" angle="90.00" type="DEFAULT_VEHTYPE" speed="11.11" pos="83.47" lane="2o_1" slope="0.00"/>
    </timestep>
    <timestep time="37.50">
        <vehicle id="v0" x="600.38" y="498.35" angle="90.00" type="DEFAULT_VEHTYPE" speed="11.11" pos="89.03" lane="2o_1" slope="0.00"/>
    </timestep>
    <timestep time="38.00">
        <vehicle id="v0" x="605.93" y="498.35" angle="90.00" type="DEFAULT_VEHTYPE" speed="11.11" pos="94.58" lane="2o_1" slope="0.00"/>
    </timestep>
    <timestep time="38.50">
        <vehicle id="v0" x="611.49" y="498.35" angle="90.00" type="DEFAULT_VEHTYPE" speed="11.11" pos="100.14" lane="2o_1" slope="0.00"/>
    </timestep>
    <timestep time="39.00">
        <vehicle id="v0" x="617.04" y="498.35" angle="90.00" type="DEFAULT_VEHTYPE" speed="11.11" pos="105.69" lane="2o_1" slope="0.00"/>
    </timestep>
    <timestep time="39.50">
        <vehicle id="v0" x="622.60" y="498.35" angle="90.00" type="DEFAULT_VEHTYPE" speed="11.11" pos="111.25" lane="2o_1" slope="0.00"/>
    </timestep>
    <timestep time="40.00">
        <vehicle id="v0" x="628.15" y="498.35" angle="90.00" type="DEFAULT_VEHTYPE" speed="11.11" pos="116.80" lane="2o_1" slope="0.00"/>
    </timestep>
    <timestep time="40.50">
        <vehicle id="v0" x="633.71" y="498.35" angle="90.00" type="DEFAULT_VEHTYPE" speed="11.11" pos="122.36" lane="2o_1" slope="0.00"/>
    </timestep>
    <timestep time="41.00">
        <vehicle id="v0" x="639.26" y="498.35" angle="90.00" type="DEFAULT_VEHTYPE" speed="11.11" pos="127.91" lane="2o_1" slope="0.00"/>
    </timestep>
    <timestep time="41.50">
        <vehicle id="v0" x="644.82" y="498.35" angle="90.00" type="DEFAULT_VEHTYPE" speed="11.11" pos="133.47" lane="2o_1" slope="0.00"/>
    </timestep>
    <timestep time="42.00">
        <vehicle id="v0" x="650.37" y="498.35" angle="90.00" type="DEFAULT_VEHTYPE" speed="11.11" pos="139.02" lane="2o_1" slope="0.00"/>
    </timestep>
    <timestep time="42.50">
        <vehicle id="v0" x="655.93" y="498.35" angle="90.00" type="DEFAULT_VEHTYPE" speed="11.11" pos="144.58" lane="2o_1" slope="0.00"/>
    </timestep>
    <timestep time="43.00">
        <vehicle id="v0" x="661.48" y="498.35" angle="90.00" type="DEFAULT_VEHTYPE" speed="11.11" pos="150.13" lane="2o_1" slope="0.00"/>
    </timestep>
    <timestep time="43.50">
        <vehicle id="v0" x="667.04" y="498.35" angle="90.00" type="DEFAULT_VEHTYPE" speed="11.11" pos="155.69" lane="2o_1" slope="0.00"/>
    </timestep>
    <timestep time="44.00">
        <vehicle id="v0" x="672.59" y="498.35" angle="90.00" type="DEFAULT_VEHTYPE" speed="11.11" pos="161.24" lane="2o_1" slope="0.00"/>
    </timestep>
    <timestep time="44.50">
        <vehicle id="v0" x="678.15" y="498.35" angle="90.00" type="DEFAULT_VEHTYPE" speed="11.11" pos="166.80" lane="2o_1" slope="0.00"/>
    </timestep>
    <timestep time="45.00">
        <vehicle id="v0" x="683.70" y="498.35" angle="90.00" type="DEFAULT_VEHTYPE" speed="11.11" pos="172.35" lane="2o_1" slope="0.00"/>
    </timestep>
    <timestep time="45.50">
        <vehicle id="v0" x="689.26" y="498.35" angle="90.00" type="DEFAULT_VEHTYPE" speed="11.11" pos="177.91" lane="2o_1" slope="0.00"/>
    </timestep>
    <timestep time="46.00">
        <vehicle id="v0" x="694.81" y="498.35" angle="90.00" type="DEFAULT_VEHTYPE" speed="11.11" pos="183.46" lane="2o_1" slope="0.00"/>
    </timestep>
    <timestep time="46.50">
        <vehicle id="v0" x="700.37" y="498.35" angle="90.00" type="DEFAULT_VEHTYPE" speed="11.11" pos="189.02" lane="2o_1" slope="0.00"/>
    </timestep>
    <timestep time="47.00">
        <vehicle id="v0" x="705.92" y="498.35" angle="90.00" type="DEFAULT_VEHTYPE" speed="11.11" pos="194.57" lane="2o_1" slope="0.00"/>
    </timestep>
    <timestep time="47.50">
        <vehicle id="v0" x="711.48" y="498.35" angle="90.00" type="DEFAULT_VEHTYPE" speed="11.11" pos="200.13" lane="2o_1" slope="0.00"/>
    </timestep>
    <timestep time="48.00">
        <vehicle id="v0" x="717.03" y="498.35" angle="90.00" type="DEFAULT_VEHTYPE" speed="11.11" pos="205.68" lane="2o_1" slope="0.00"/>
    </timestep>
    <timestep time="48.50">
        <vehicle id="v0" x="722.59" y="498.35" angle="90.00" type="DEFAULT_VEHTYPE" speed="11.11" pos="211.24" lane="2o_1" slope="0.00"/>
    </timestep>
    <timestep time="49.00">
        <vehicle id="v0" x="728.14" y="498.35" angle="90.00" type="DEFAULT_VEHTYPE" speed="11.11" pos="216.79" lane="2o_1" slope="0.00"/>
    </timestep>
    <timestep time="49.50">
        <vehicle id="v0" x="733.70" y="498.35" angle="90.00" type="DEFAULT_VEHTYPE" speed="11.11" pos="222.35" lane="2o_1" slope="0.00"/>
    </timestep>
    <timestep time="50.00">
        <vehicle id="v0" x="739.25" y="498.35" angle="90.00" type="DEFAULT_VEHTYPE" speed="11.11" pos="227.90" lane="2o_1" slope="0.00"/>
    </timestep>
    <timestep time="50.50">
        <vehicle id="v0" x="744.81" y="498.35" angle="90.00" type="DEFAULT_VEHTYPE" speed="11.11" pos="233.46" lane="2o_1" slope="0.00"/>
    </timestep>
    <timestep time="51.00">
        <vehicle id="v0" x="750.36" y="498.35" angle="90.00" type="DEFAULT_VEHTYPE" speed="11.11" pos="239.01" lane="2o_1" slope="0.00"/>
    </timestep>
    <timestep time="51.50">
        <vehicle id="v0" x="755.92" y="498.35" angle="90.00" type="DEFAULT_VEHTYPE" speed="11.11" pos="244.57" lane="2o_1" slope="0.00"/>
    </timestep>
    <timestep time="52.00"/>
</fcd-export>
