<?xml version="1.0" encoding="UTF-8"?>

<!-- generated on Mon Sep 19 21:55:50 2016 by SUMO Version dev-SVN-r21424
<?xml version="1.0" encoding="UTF-8"?>

<configuration xmlns:xsi="http://www.w3.org/2001/XMLSchema-instance" xsi:noNamespaceSchemaLocation="http://sumo.dlr.de/xsd/sumoConfiguration.xsd">

    <input>
        <net-file value="net.net.xml"/>
        <route-files value="input_routes.rou.xml"/>
        <additional-files value="input_additional.add.xml"/>
    </input>

    <time>
        <begin value="0"/>
        <end value="10000"/>
    </time>

    <processing>
        <step-method.ballistic value="true"/>
    </processing>

    <report>
        <xml-validation value="never"/>
        <duration-log.disable value="true"/>
        <no-step-log value="true"/>
    </report>

</configuration>
-->

<meandata xmlns:xsi="http://www.w3.org/2001/XMLSchema-instance" xsi:noNamespaceSchemaLocation="http://sumo.dlr.de/xsd/meandata_file.xsd">
    <interval begin="0.00" end="60.00" id="dump_60">
        <edge id="1/1to2/1" sampledSeconds="461.10" traveltime="58.59" overlapTraveltime="58.88" density="7.84" occupancy="3.92" waitingTime="1.00" speed="16.73" departed="15" arrived="0" entered="0" left="2" laneChangedFrom="0" laneChangedTo="0"/>
        <edge id="2/1to3/1" sampledSeconds="6.10" traveltime="50.00" overlapTraveltime="50.25" density="0.10" occupancy="0.05" waitingTime="0.00" speed="19.60" departed="0" arrived="0" entered="2" left="0" laneChangedFrom="0" laneChangedTo="0"/>
    </interval>
    <interval begin="60.00" end="120.00" id="dump_60">
        <edge id="1/1to2/1" sampledSeconds="818.48" traveltime="54.59" overlapTraveltime="54.85" density="13.92" occupancy="6.96" waitingTime="0.00" speed="17.96" departed="15" arrived="0" entered="0" left="15" laneChangedFrom="0" laneChangedTo="0"/>
        <edge id="2/1to3/1" sampledSeconds="513.87" traveltime="50.00" overlapTraveltime="50.25" density="8.74" occupancy="4.37" waitingTime="0.00" speed="19.60" departed="0" arrived="0" entered="15" left="4" laneChangedFrom="0" laneChangedTo="0"/>
        <edge id="3/1to4/1" sampledSeconds="34.56" traveltime="50.00" overlapTraveltime="50.25" density="0.59" occupancy="0.29" waitingTime="0.00" speed="19.60" departed="0" arrived="0" entered="4" left="0" laneChangedFrom="0" laneChangedTo="0"/>
    </interval>
    <interval begin="120.00" end="180.00" id="dump_60">
        <edge id="1/1to2/1" sampledSeconds="818.48" traveltime="54.59" overlapTraveltime="54.85" density="13.92" occupancy="6.96" waitingTime="0.00" speed="17.96" departed="15" arrived="0" entered="0" left="15" laneChangedFrom="0" laneChangedTo="0"/>
        <edge id="2/1to3/1" sampledSeconds="753.78" traveltime="50.00" overlapTraveltime="50.25" density="12.82" occupancy="6.41" waitingTime="0.00" speed="19.60" departed="0" arrived="0" entered="15" left="15" laneChangedFrom="0" laneChangedTo="0"/>
        <edge id="3/1to4/1" sampledSeconds="609.81" traveltime="50.00" overlapTraveltime="50.25" density="10.37" occupancy="5.19" waitingTime="0.00" speed="19.60" departed="0" arrived="0" entered="15" left="7" laneChangedFrom="0" laneChangedTo="0"/>
        <edge id="4/1to5/1" sampledSeconds="86.65" traveltime="50.00" overlapTraveltime="50.25" density="1.47" occupancy="0.74" waitingTime="0.00" speed="19.60" departed="0" arrived="0" entered="7" left="0" laneChangedFrom="0" laneChangedTo="0"/>
    </interval>
    <interval begin="180.00" end="240.00" id="dump_60">
        <edge id="1/1to2/1" sampledSeconds="818.48" traveltime="54.59" overlapTraveltime="54.85" density="13.92" occupancy="6.96" waitingTime="0.00" speed="17.96" departed="15" arrived="0" entered="0" left="15" laneChangedFrom="0" laneChangedTo="0"/>
        <edge id="2/1to3/1" sampledSeconds="753.78" traveltime="50.00" overlapTraveltime="50.25" density="12.82" occupancy="6.41" waitingTime="0.00" speed="19.60" departed="0" arrived="0" entered="15" left="15" laneChangedFrom="0" laneChangedTo="0"/>
        <edge id="3/1to4/1" sampledSeconds="753.78" traveltime="50.00" overlapTraveltime="50.25" density="12.82" occupancy="6.41" waitingTime="0.00" speed="19.60" departed="0" arrived="0" entered="15" left="15" laneChangedFrom="0" laneChangedTo="0"/>
        <edge id="4/1to5/1" sampledSeconds="680.63" traveltime="50.00" overlapTraveltime="50.25" density="11.58" occupancy="5.79" waitingTime="0.00" speed="19.60" departed="0" arrived="0" entered="15" left="9" laneChangedFrom="0" laneChangedTo="0"/>
        <edge id="5/1to6/1" sampledSeconds="163.75" traveltime="50.00" overlapTraveltime="50.25" density="2.79" occupancy="1.39" waitingTime="0.00" speed="19.60" departed="0" arrived="0" entered="9" left="0" laneChangedFrom="0" laneChangedTo="0"/>
    </interval>
    <interval begin="240.00" end="300.00" id="dump_60">
        <edge id="1/1to2/1" sampledSeconds="818.48" traveltime="54.59" overlapTraveltime="54.85" density="13.92" occupancy="6.96" waitingTime="0.00" speed="17.96" departed="15" arrived="0" entered="0" left="15" laneChangedFrom="0" laneChangedTo="0"/>
        <edge id="2/1to3/1" sampledSeconds="753.78" traveltime="50.00" overlapTraveltime="50.25" density="12.82" occupancy="6.41" waitingTime="0.00" speed="19.60" departed="0" arrived="0" entered="15" left="15" laneChangedFrom="0" laneChangedTo="0"/>
        <edge id="3/1to4/1" sampledSeconds="753.78" traveltime="50.00" overlapTraveltime="50.25" density="12.82" occupancy="6.41" waitingTime="0.00" speed="19.60" departed="0" arrived="0" entered="15" left="15" laneChangedFrom="0" laneChangedTo="0"/>
        <edge id="4/1to5/1" sampledSeconds="753.78" traveltime="50.00" overlapTraveltime="50.25" density="12.82" occupancy="6.41" waitingTime="0.00" speed="19.60" departed="0" arrived="0" entered="15" left="15" laneChangedFrom="0" laneChangedTo="0"/>
        <edge id="5/1to6/1" sampledSeconds="728.07" traveltime="50.00" overlapTraveltime="50.25" density="12.38" occupancy="6.19" waitingTime="0.00" speed="19.60" departed="0" arrived="0" entered="15" left="12" laneChangedFrom="0" laneChangedTo="0"/>
        <edge id="6/1to7/1" sampledSeconds="264.25" traveltime="50.00" overlapTraveltime="50.25" density="4.49" occupancy="2.25" waitingTime="0.00" speed="19.60" departed="0" arrived="0" entered="11" left="0" laneChangedFrom="0" laneChangedTo="0"/>
    </interval>
    <interval begin="300.00" end="360.00" id="dump_60">
        <edge id="1/1to2/1" sampledSeconds="818.48" traveltime="54.59" overlapTraveltime="54.85" density="13.92" occupancy="6.96" waitingTime="0.00" speed="17.96" departed="15" arrived="0" entered="0" left="15" laneChangedFrom="0" laneChangedTo="0"/>
        <edge id="2/1to3/1" sampledSeconds="753.78" traveltime="50.00" overlapTraveltime="50.25" density="12.82" occupancy="6.41" waitingTime="0.00" speed="19.60" departed="0" arrived="0" entered="15" left="15" laneChangedFrom="0" laneChangedTo="0"/>
        <edge id="3/1to4/1" sampledSeconds="753.78" traveltime="50.00" overlapTraveltime="50.25" density="12.82" occupancy="6.41" waitingTime="0.00" speed="19.60" departed="0" arrived="0" entered="15" left="15" laneChangedFrom="0" laneChangedTo="0"/>
        <edge id="4/1to5/1" sampledSeconds="753.78" traveltime="50.00" overlapTraveltime="50.25" density="12.82" occupancy="6.41" waitingTime="0.00" speed="19.60" departed="0" arrived="0" entered="15" left="15" laneChangedFrom="0" laneChangedTo="0"/>
        <edge id="5/1to6/1" sampledSeconds="753.78" traveltime="50.00" overlapTraveltime="50.25" density="12.82" occupancy="6.41" waitingTime="0.00" speed="19.60" departed="0" arrived="0" entered="15" left="15" laneChangedFrom="0" laneChangedTo="0"/>
        <edge id="6/1to7/1" sampledSeconds="750.43" traveltime="50.00" overlapTraveltime="50.25" density="12.76" occupancy="6.38" waitingTime="0.00" speed="19.60" departed="0" arrived="0" entered="15" left="14" laneChangedFrom="0" laneChangedTo="0"/>
        <edge id="7/1to8/1" sampledSeconds="385.60" traveltime="50.00" overlapTraveltime="50.25" density="6.56" occupancy="3.28" waitingTime="0.00" speed="19.60" departed="0" arrived="0" entered="14" left="2" laneChangedFrom="0" laneChangedTo="0"/>
        <edge id="8/1to9/1" sampledSeconds="4.41" traveltime="50.00" overlapTraveltime="50.25" density="0.08" occupancy="0.04" waitingTime="0.00" speed="19.60" departed="0" arrived="0" entered="1" left="0" laneChangedFrom="0" laneChangedTo="0"/>
    </interval>
    <interval begin="360.00" end="420.00" id="dump_60">
        <edge id="1/1to2/1" sampledSeconds="818.48" traveltime="54.59" overlapTraveltime="54.85" density="13.92" occupancy="6.96" waitingTime="0.00" speed="17.96" departed="15" arrived="0" entered="0" left="15" laneChangedFrom="0" laneChangedTo="0"/>
        <edge id="2/1to3/1" sampledSeconds="753.78" traveltime="50.00" overlapTraveltime="50.25" density="12.82" occupancy="6.41" waitingTime="0.00" speed="19.60" departed="0" arrived="0" entered="15" left="15" laneChangedFrom="0" laneChangedTo="0"/>
        <edge id="3/1to4/1" sampledSeconds="753.78" traveltime="50.00" overlapTraveltime="50.25" density="12.82" occupancy="6.41" waitingTime="0.00" speed="19.60" departed="0" arrived="0" entered="15" left="15" laneChangedFrom="0" laneChangedTo="0"/>
        <edge id="4/1to5/1" sampledSeconds="753.78" traveltime="50.00" overlapTraveltime="50.25" density="12.82" occupancy="6.41" waitingTime="0.00" speed="19.60" departed="0" arrived="0" entered="15" left="15" laneChangedFrom="0" laneChangedTo="0"/>
        <edge id="5/1to6/1" sampledSeconds="753.78" traveltime="50.00" overlapTraveltime="50.25" density="12.82" occupancy="6.41" waitingTime="0.00" speed="19.60" departed="0" arrived="0" entered="15" left="15" laneChangedFrom="0" laneChangedTo="0"/>
        <edge id="6/1to7/1" sampledSeconds="753.78" traveltime="50.00" overlapTraveltime="50.25" density="12.82" occupancy="6.41" waitingTime="0.00" speed="19.60" departed="0" arrived="0" entered="15" left="15" laneChangedFrom="0" laneChangedTo="0"/>
        <edge id="7/1to8/1" sampledSeconds="753.54" traveltime="50.00" overlapTraveltime="50.25" density="12.82" occupancy="6.41" waitingTime="0.00" speed="19.60" departed="0" arrived="0" entered="15" left="14" laneChangedFrom="0" laneChangedTo="0"/>
        <edge id="8/1to9/1" sampledSeconds="504.11" traveltime="50.00" overlapTraveltime="50.25" density="8.57" occupancy="4.29" waitingTime="0.00" speed="19.60" departed="0" arrived="0" entered="15" left="4" laneChangedFrom="0" laneChangedTo="0"/>
        <edge id="9/1to10/1" sampledSeconds="30.92" traveltime="50.00" overlapTraveltime="50.25" density="0.53" occupancy="0.26" waitingTime="0.00" speed="19.60" departed="0" arrived="0" entered="4" left="0" laneChangedFrom="0" laneChangedTo="0"/>
    </interval>
    <interval begin="420.00" end="480.00" id="dump_60">
        <edge id="1/1to2/1" sampledSeconds="818.48" traveltime="54.59" overlapTraveltime="54.85" density="13.92" occupancy="6.96" waitingTime="0.00" speed="17.96" departed="15" arrived="0" entered="0" left="15" laneChangedFrom="0" laneChangedTo="0"/>
        <edge id="10/1to1/1" sampledSeconds="80.96" traveltime="50.00" overlapTraveltime="50.25" density="1.38" occupancy="0.69" waitingTime="0.00" speed="19.60" departed="0" arrived="0" entered="6" left="0" laneChangedFrom="0" laneChangedTo="0"/>
        <edge id="2/1to3/1" sampledSeconds="753.78" traveltime="50.00" overlapTraveltime="50.25" density="12.82" occupancy="6.41" waitingTime="0.00" speed="19.60" departed="0" arrived="0" entered="15" left="15" laneChangedFrom="0" laneChangedTo="0"/>
        <edge id="3/1to4/1" sampledSeconds="753.78" traveltime="50.00" overlapTraveltime="50.25" density="12.82" occupancy="6.41" waitingTime="0.00" speed="19.60" departed="0" arrived="0" entered="15" left="15" laneChangedFrom="0" laneChangedTo="0"/>
        <edge id="4/1to5/1" sampledSeconds="753.78" traveltime="50.00" overlapTraveltime="50.25" density="12.82" occupancy="6.41" waitingTime="0.00" speed="19.60" departed="0" arrived="0" entered="15" left="15" laneChangedFrom="0" laneChangedTo="0"/>
        <edge id="5/1to6/1" sampledSeconds="753.78" traveltime="50.00" overlapTraveltime="50.25" density="12.82" occupancy="6.41" waitingTime="0.00" speed="19.60" departed="0" arrived="0" entered="15" left="15" laneChangedFrom="0" laneChangedTo="0"/>
        <edge id="6/1to7/1" sampledSeconds="753.78" traveltime="50.00" overlapTraveltime="50.25" density="12.82" occupancy="6.41" waitingTime="0.00" speed="19.60" departed="0" arrived="0" entered="15" left="15" laneChangedFrom="0" laneChangedTo="0"/>
        <edge id="7/1to8/1" sampledSeconds="753.78" traveltime="50.00" overlapTraveltime="50.25" density="12.82" occupancy="6.41" waitingTime="0.00" speed="19.60" departed="0" arrived="0" entered="15" left="15" laneChangedFrom="0" laneChangedTo="0"/>
        <edge id="8/1to9/1" sampledSeconds="753.78" traveltime="50.00" overlapTraveltime="50.25" density="12.82" occupancy="6.41" waitingTime="0.00" speed="19.60" departed="0" arrived="0" entered="15" left="15" laneChangedFrom="0" laneChangedTo="0"/>
        <edge id="9/1to10/1" sampledSeconds="601.76" traveltime="50.00" overlapTraveltime="50.25" density="10.23" occupancy="5.12" waitingTime="0.00" speed="19.60" departed="0" arrived="0" entered="15" left="6" laneChangedFrom="0" laneChangedTo="0"/>
    </interval>
    <interval begin="480.00" end="540.00" id="dump_60">
        <edge id="1/1to2/1" sampledSeconds="813.64" traveltime="54.45" overlapTraveltime="54.70" density="13.84" occupancy="6.92" waitingTime="1.00" speed="18.01" departed="13" arrived="0" entered="2" left="15" laneChangedFrom="0" laneChangedTo="0"/>
        <edge id="10/1to1/1" sampledSeconds="812.80" traveltime="62.12" overlapTraveltime="62.89" density="13.82" occupancy="6.91" waitingTime="2.00" speed="15.66" departed="0" arrived="0" entered="15" left="2" laneChangedFrom="0" laneChangedTo="0"/>
        <edge id="2/1to3/1" sampledSeconds="753.78" traveltime="50.00" overlapTraveltime="50.25" density="12.82" occupancy="6.41" waitingTime="0.00" speed="19.60" departed="0" arrived="0" entered="15" left="15" laneChangedFrom="0" laneChangedTo="0"/>
        <edge id="3/1to4/1" sampledSeconds="753.78" traveltime="50.00" overlapTraveltime="50.25" density="12.82" occupancy="6.41" waitingTime="0.00" speed="19.60" departed="0" arrived="0" entered="15" left="15" laneChangedFrom="0" laneChangedTo="0"/>
        <edge id="4/1to5/1" sampledSeconds="753.78" traveltime="50.00" overlapTraveltime="50.25" density="12.82" occupancy="6.41" waitingTime="0.00" speed="19.60" departed="0" arrived="0" entered="15" left="15" laneChangedFrom="0" laneChangedTo="0"/>
        <edge id="5/1to6/1" sampledSeconds="753.78" traveltime="50.00" overlapTraveltime="50.25" density="12.82" occupancy="6.41" waitingTime="0.00" speed="19.60" departed="0" arrived="0" entered="15" left="15" laneChangedFrom="0" laneChangedTo="0"/>
        <edge id="6/1to7/1" sampledSeconds="753.78" traveltime="50.00" overlapTraveltime="50.25" density="12.82" occupancy="6.41" waitingTime="0.00" speed="19.60" departed="0" arrived="0" entered="15" left="15" laneChangedFrom="0" laneChangedTo="0"/>
        <edge id="7/1to8/1" sampledSeconds="753.78" traveltime="50.00" overlapTraveltime="50.25" density="12.82" occupancy="6.41" waitingTime="0.00" speed="19.60" departed="0" arrived="0" entered="15" left="15" laneChangedFrom="0" laneChangedTo="0"/>
        <edge id="8/1to9/1" sampledSeconds="753.78" traveltime="50.00" overlapTraveltime="50.25" density="12.82" occupancy="6.41" waitingTime="0.00" speed="19.60" departed="0" arrived="0" entered="15" left="15" laneChangedFrom="0" laneChangedTo="0"/>
        <edge id="9/1to10/1" sampledSeconds="753.78" traveltime="50.00" overlapTraveltime="50.25" density="12.82" occupancy="6.41" waitingTime="0.00" speed="19.60" departed="0" arrived="0" entered="15" left="15" laneChangedFrom="0" laneChangedTo="0"/>
    </interval>
    <interval begin="540.00" end="600.00" id="dump_60">
        <edge id="1/1to2/1" sampledSeconds="778.96" traveltime="54.61" overlapTraveltime="54.86" density="13.25" occupancy="6.62" waitingTime="4.00" speed="17.95" departed="11" arrived="0" entered="3" left="14" laneChangedFrom="0" laneChangedTo="0"/>
        <edge id="10/1to1/1" sampledSeconds="1531.94" traveltime="123.35" overlapTraveltime="124.56" density="26.05" occupancy="13.03" waitingTime="3.00" speed="7.91" departed="0" arrived="0" entered="15" left="3" laneChangedFrom="0" laneChangedTo="0"/>
        <edge id="2/1to3/1" sampledSeconds="747.86" traveltime="50.00" overlapTraveltime="50.25" density="12.72" occupancy="6.36" waitingTime="0.00" speed="19.60" departed="0" arrived="0" entered="14" left="15" laneChangedFrom="0" laneChangedTo="0"/>
        <edge id="3/1to4/1" sampledSeconds="753.78" traveltime="50.00" overlapTraveltime="50.25" density="12.82" occupancy="6.41" waitingTime="0.00" speed="19.60" departed="0" arrived="0" entered="15" left="15" laneChangedFrom="0" laneChangedTo="0"/>
        <edge id="4/1to5/1" sampledSeconds="753.78" traveltime="50.00" overlapTraveltime="50.25" density="12.82" occupancy="6.41" waitingTime="0.00" speed="19.60" departed="0" arrived="0" entered="15" left="15" laneChangedFrom="0" laneChangedTo="0"/>
        <edge id="5/1to6/1" sampledSeconds="753.78" traveltime="50.00" overlapTraveltime="50.25" density="12.82" occupancy="6.41" waitingTime="0.00" speed="19.60" departed="0" arrived="0" entered="15" left="15" laneChangedFrom="0" laneChangedTo="0"/>
        <edge id="6/1to7/1" sampledSeconds="753.78" traveltime="50.00" overlapTraveltime="50.25" density="12.82" occupancy="6.41" waitingTime="0.00" speed="19.60" departed="0" arrived="0" entered="15" left="15" laneChangedFrom="0" laneChangedTo="0"/>
        <edge id="7/1to8/1" sampledSeconds="753.78" traveltime="50.00" overlapTraveltime="50.25" density="12.82" occupancy="6.41" waitingTime="0.00" speed="19.60" departed="0" arrived="0" entered="15" left="15" laneChangedFrom="0" laneChangedTo="0"/>
        <edge id="8/1to9/1" sampledSeconds="753.78" traveltime="50.00" overlapTraveltime="50.25" density="12.82" occupancy="6.41" waitingTime="0.00" speed="19.60" departed="0" arrived="0" entered="15" left="15" laneChangedFrom="0" laneChangedTo="0"/>
        <edge id="9/1to10/1" sampledSeconds="753.78" traveltime="50.00" overlapTraveltime="50.25" density="12.82" occupancy="6.41" waitingTime="0.00" speed="19.60" departed="0" arrived="0" entered="15" left="15" laneChangedFrom="0" laneChangedTo="0"/>
    </interval>
    <interval begin="600.00" end="660.00" id="dump_60">
        <edge id="1/1to2/1" sampledSeconds="770.44" traveltime="54.52" overlapTraveltime="54.78" density="13.10" occupancy="6.55" waitingTime="3.00" speed="17.98" departed="10" arrived="0" entered="4" left="14" laneChangedFrom="0" laneChangedTo="0"/>
        <edge id="10/1to1/1" sampledSeconds="2223.76" traveltime="222.27" overlapTraveltime="224.29" density="37.82" occupancy="18.91" waitingTime="4.00" speed="4.39" departed="0" arrived="0" entered="15" left="4" laneChangedFrom="0" laneChangedTo="0"/>
        <edge id="2/1to3/1" sampledSeconds="712.48" traveltime="50.00" overlapTraveltime="50.25" density="12.12" occupancy="6.06" waitingTime="0.00" speed="19.60" departed="0" arrived="0" entered="14" left="15" laneChangedFrom="0" laneChangedTo="0"/>
        <edge id="3/1to4/1" sampledSeconds="742.46" traveltime="50.00" overlapTraveltime="50.25" density="12.63" occupancy="6.31" waitingTime="0.00" speed="19.60" departed="0" arrived="0" entered="15" left="15" laneChangedFrom="0" laneChangedTo="0"/>
        <edge id="4/1to5/1" sampledSeconds="753.78" traveltime="50.00" overlapTraveltime="50.25" density="12.82" occupancy="6.41" waitingTime="0.00" speed="19.60" departed="0" arrived="0" entered="15" left="15" laneChangedFrom="0" laneChangedTo="0"/>
        <edge id="5/1to6/1" sampledSeconds="753.78" traveltime="50.00" overlapTraveltime="50.25" density="12.82" occupancy="6.41" waitingTime="0.00" speed="19.60" departed="0" arrived="0" entered="15" left="15" laneChangedFrom="0" laneChangedTo="0"/>
        <edge id="6/1to7/1" sampledSeconds="753.78" traveltime="50.00" overlapTraveltime="50.25" density="12.82" occupancy="6.41" waitingTime="0.00" speed="19.60" departed="0" arrived="0" entered="15" left="15" laneChangedFrom="0" laneChangedTo="0"/>
        <edge id="7/1to8/1" sampledSeconds="753.78" traveltime="50.00" overlapTraveltime="50.25" density="12.82" occupancy="6.41" waitingTime="0.00" speed="19.60" departed="0" arrived="0" entered="15" left="15" laneChangedFrom="0" laneChangedTo="0"/>
        <edge id="8/1to9/1" sampledSeconds="753.78" traveltime="50.00" overlapTraveltime="50.25" density="12.82" occupancy="6.41" waitingTime="0.00" speed="19.60" departed="0" arrived="0" entered="15" left="15" laneChangedFrom="0" laneChangedTo="0"/>
        <edge id="9/1to10/1" sampledSeconds="753.78" traveltime="50.00" overlapTraveltime="50.25" density="12.82" occupancy="6.41" waitingTime="0.00" speed="19.60" departed="0" arrived="0" entered="15" left="15" laneChangedFrom="0" laneChangedTo="0"/>
    </interval>
    <interval begin="660.00" end="720.00" id="dump_60">
        <edge id="1/1to2/1" sampledSeconds="772.69" traveltime="54.68" overlapTraveltime="54.93" density="13.14" occupancy="6.57" waitingTime="4.00" speed="17.93" departed="11" arrived="0" entered="3" left="14" laneChangedFrom="0" laneChangedTo="0"/>
        <edge id="10/1to1/1" sampledSeconds="2908.66" traveltime="382.97" overlapTraveltime="386.36" density="49.47" occupancy="24.74" waitingTime="3.00" speed="2.55" departed="0" arrived="0" entered="15" left="3" laneChangedFrom="0" laneChangedTo="0"/>
        <edge id="2/1to3/1" sampledSeconds="709.62" traveltime="50.00" overlapTraveltime="50.25" density="12.07" occupancy="6.03" waitingTime="0.00" speed="19.60" departed="0" arrived="0" entered="14" left="14" laneChangedFrom="0" laneChangedTo="0"/>
        <edge id="3/1to4/1" sampledSeconds="709.77" traveltime="50.00" overlapTraveltime="50.25" density="12.07" occupancy="6.04" waitingTime="0.00" speed="19.60" departed="0" arrived="0" entered="14" left="14" laneChangedFrom="0" laneChangedTo="0"/>
        <edge id="4/1to5/1" sampledSeconds="736.47" traveltime="50.00" overlapTraveltime="50.25" density="12.53" occupancy="6.26" waitingTime="0.00" speed="19.60" departed="0" arrived="0" entered="14" left="15" laneChangedFrom="0" laneChangedTo="0"/>
        <edge id="5/1to6/1" sampledSeconds="753.78" traveltime="50.00" overlapTraveltime="50.25" density="12.82" occupancy="6.41" waitingTime="0.00" speed="19.60" departed="0" arrived="0" entered="15" left="15" laneChangedFrom="0" laneChangedTo="0"/>
        <edge id="6/1to7/1" sampledSeconds="753.78" traveltime="50.00" overlapTraveltime="50.25" density="12.82" occupancy="6.41" waitingTime="0.00" speed="19.60" departed="0" arrived="0" entered="15" left="15" laneChangedFrom="0" laneChangedTo="0"/>
        <edge id="7/1to8/1" sampledSeconds="753.78" traveltime="50.00" overlapTraveltime="50.25" density="12.82" occupancy="6.41" waitingTime="0.00" speed="19.60" departed="0" arrived="0" entered="15" left="15" laneChangedFrom="0" laneChangedTo="0"/>
        <edge id="8/1to9/1" sampledSeconds="753.78" traveltime="50.00" overlapTraveltime="50.25" density="12.82" occupancy="6.41" waitingTime="0.00" speed="19.60" departed="0" arrived="0" entered="15" left="15" laneChangedFrom="0" laneChangedTo="0"/>
        <edge id="9/1to10/1" sampledSeconds="753.78" traveltime="50.00" overlapTraveltime="50.25" density="12.82" occupancy="6.41" waitingTime="0.00" speed="19.60" departed="0" arrived="0" entered="15" left="15" laneChangedFrom="0" laneChangedTo="0"/>
    </interval>
    <interval begin="720.00" end="780.00" id="dump_60">
        <edge id="1/1to2/1" sampledSeconds="770.43" traveltime="54.54" overlapTraveltime="54.79" density="13.10" occupancy="6.55" waitingTime="3.00" speed="17.98" departed="11" arrived="0" entered="4" left="15" laneChangedFrom="0" laneChangedTo="0"/>
        <edge id="10/1to1/1" sampledSeconds="3597.32" traveltime="693.28" overlapTraveltime="698.45" density="61.18" occupancy="30.59" waitingTime="4.00" speed="1.41" departed="0" arrived="0" entered="15" left="4" laneChangedFrom="0" laneChangedTo="0"/>
        <edge id="2/1to3/1" sampledSeconds="709.09" traveltime="50.00" overlapTraveltime="50.25" density="12.06" occupancy="6.03" waitingTime="0.00" speed="19.60" departed="0" arrived="0" entered="15" left="14" laneChangedFrom="0" laneChangedTo="0"/>
        <edge id="3/1to4/1" sampledSeconds="709.55" traveltime="50.00" overlapTraveltime="50.25" density="12.07" occupancy="6.03" waitingTime="0.00" speed="19.60" departed="0" arrived="0" entered="14" left="14" laneChangedFrom="0" laneChangedTo="0"/>
        <edge id="4/1to5/1" sampledSeconds="709.54" traveltime="50.00" overlapTraveltime="50.25" density="12.07" occupancy="6.03" waitingTime="0.00" speed="19.60" departed="0" arrived="0" entered="14" left="14" laneChangedFrom="0" laneChangedTo="0"/>
        <edge id="5/1to6/1" sampledSeconds="728.61" traveltime="50.00" overlapTraveltime="50.25" density="12.39" occupancy="6.20" waitingTime="0.00" speed="19.60" departed="0" arrived="0" entered="14" left="14" laneChangedFrom="0" laneChangedTo="0"/>
        <edge id="6/1to7/1" sampledSeconds="753.86" traveltime="50.00" overlapTraveltime="50.25" density="12.82" occupancy="6.41" waitingTime="0.00" speed="19.60" departed="0" arrived="0" entered="15" left="15" laneChangedFrom="0" laneChangedTo="0"/>
        <edge id="7/1to8/1" sampledSeconds="753.78" traveltime="50.00" overlapTraveltime="50.25" density="12.82" occupancy="6.41" waitingTime="0.00" speed="19.60" departed="0" arrived="0" entered="15" left="15" laneChangedFrom="0" laneChangedTo="0"/>
        <edge id="8/1to9/1" sampledSeconds="753.78" traveltime="50.00" overlapTraveltime="50.25" density="12.82" occupancy="6.41" waitingTime="0.00" speed="19.60" departed="0" arrived="0" entered="15" left="15" laneChangedFrom="0" laneChangedTo="0"/>
        <edge id="9/1to10/1" sampledSeconds="756.05" traveltime="50.17" overlapTraveltime="50.45" density="12.86" occupancy="6.43" waitingTime="0.00" speed="19.52" departed="0" arrived="0" entered="15" left="15" laneChangedFrom="0" laneChangedTo="0"/>
    </interval>
    <interval begin="780.00" end="840.00" id="dump_60">
        <edge id="1/1to2/1" sampledSeconds="773.17" traveltime="54.71" overlapTraveltime="54.96" density="13.15" occupancy="6.58" waitingTime="4.00" speed="17.92" departed="11" arrived="0" entered="3" left="14" laneChangedFrom="0" laneChangedTo="0"/>
        <edge id="10/1to1/1" sampledSeconds="4011.97" traveltime="1102.23" overlapTraveltime="1107.94" density="68.24" occupancy="34.12" waitingTime="3.00" speed="0.89" departed="0" arrived="0" entered="6" left="3" laneChangedFrom="0" laneChangedTo="0"/>
        <edge id="2/1to3/1" sampledSeconds="709.55" traveltime="50.00" overlapTraveltime="50.25" density="12.07" occupancy="6.03" waitingTime="0.00" speed="19.60" departed="0" arrived="0" entered="14" left="14" laneChangedFrom="0" laneChangedTo="0"/>
        <edge id="3/1to4/1" sampledSeconds="709.55" traveltime="50.00" overlapTraveltime="50.25" density="12.07" occupancy="6.03" waitingTime="0.00" speed="19.60" departed="0" arrived="0" entered="14" left="14" laneChangedFrom="0" laneChangedTo="0"/>
        <edge id="4/1to5/1" sampledSeconds="709.55" traveltime="50.00" overlapTraveltime="50.25" density="12.07" occupancy="6.03" waitingTime="0.00" speed="19.60" departed="0" arrived="0" entered="14" left="14" laneChangedFrom="0" laneChangedTo="0"/>
        <edge id="5/1to6/1" sampledSeconds="709.55" traveltime="50.00" overlapTraveltime="50.25" density="12.07" occupancy="6.03" waitingTime="0.00" speed="19.60" departed="0" arrived="0" entered="14" left="15" laneChangedFrom="0" laneChangedTo="0"/>
        <edge id="6/1to7/1" sampledSeconds="721.68" traveltime="50.00" overlapTraveltime="50.25" density="12.27" occupancy="6.14" waitingTime="0.00" speed="19.60" departed="0" arrived="0" entered="14" left="15" laneChangedFrom="0" laneChangedTo="0"/>
        <edge id="7/1to8/1" sampledSeconds="751.10" traveltime="50.00" overlapTraveltime="50.25" density="12.77" occupancy="6.39" waitingTime="0.00" speed="19.60" departed="0" arrived="0" entered="15" left="15" laneChangedFrom="0" laneChangedTo="0"/>
        <edge id="8/1to9/1" sampledSeconds="753.78" traveltime="50.00" overlapTraveltime="50.25" density="12.82" occupancy="6.41" waitingTime="0.00" speed="19.60" departed="0" arrived="0" entered="15" left="15" laneChangedFrom="0" laneChangedTo="0"/>
        <edge id="9/1to10/1" sampledSeconds="1034.35" traveltime="71.98" overlapTraveltime="73.80" density="17.59" occupancy="8.80" waitingTime="0.00" speed="13.35" departed="0" arrived="0" entered="15" left="6" laneChangedFrom="0" laneChangedTo="0"/>
    </interval>
    <interval begin="840.00" end="900.00" id="dump_60">
        <edge id="1/1to2/1" sampledSeconds="769.09" traveltime="54.56" overlapTraveltime="54.81" density="13.08" occupancy="6.54" waitingTime="3.00" speed="17.97" departed="10" arrived="0" entered="4" left="14" laneChangedFrom="0" laneChangedTo="0"/>
        <edge id="10/1to1/1" sampledSeconds="4049.30" traveltime="1168.49" overlapTraveltime="1171.63" density="68.87" occupancy="34.43" waitingTime="3.00" speed="0.84" departed="0" arrived="0" entered="3" left="4" laneChangedFrom="0" laneChangedTo="0"/>
        <edge id="2/1to3/1" sampledSeconds="709.56" traveltime="50.00" overlapTraveltime="50.25" density="12.07" occupancy="6.03" waitingTime="0.00" speed="19.60" departed="0" arrived="0" entered="14" left="14" laneChangedFrom="0" laneChangedTo="0"/>
        <edge id="3/1to4/1" sampledSeconds="709.56" traveltime="50.00" overlapTraveltime="50.25" density="12.07" occupancy="6.03" waitingTime="0.00" speed="19.60" departed="0" arrived="0" entered="14" left="14" laneChangedFrom="0" laneChangedTo="0"/>