<?xml version="1.0" encoding="UTF-8"?>

<!-- generated on Mon Sep 12 13:12:08 2016 by SUMO Version dev-SVN-r21424
<?xml version="1.0" encoding="UTF-8"?>

<configuration xmlns:xsi="http://www.w3.org/2001/XMLSchema-instance" xsi:noNamespaceSchemaLocation="http://sumo.dlr.de/xsd/sumoConfiguration.xsd">

    <input>
        <net-file value="net.net.xml"/>
        <route-files value="input_routes.rou.xml"/>
        <additional-files value="input_additional.add.xml"/>
    </input>

    <time>
        <begin value="0"/>
        <end value="10000"/>
    </time>

    <processing>
        <step-method.ballistic value="true"/>
    </processing>

    <report>
        <xml-validation value="never"/>
        <duration-log.disable value="true"/>
        <no-step-log value="true"/>
    </report>

</configuration>
-->

<meandata xmlns:xsi="http://www.w3.org/2001/XMLSchema-instance" xsi:noNamespaceSchemaLocation="http://sumo.dlr.de/xsd/meandata_file.xsd">
    <interval begin="0.00" end="60.00" id="dump_60">
        <edge id="1/1to2/1" sampledSeconds="461.19" traveltime="57.55" overlapTraveltime="57.84" density="7.84" occupancy="3.92" waitingTime="1.00" speed="17.03" departed="15" arrived="0" entered="0" left="2" laneChangedFrom="0" laneChangedTo="0"/>
        <edge id="2/1to3/1" sampledSeconds="6.10" traveltime="50.00" overlapTraveltime="50.25" density="0.10" occupancy="0.05" waitingTime="0.00" speed="19.60" departed="0" arrived="0" entered="2" left="0" laneChangedFrom="0" laneChangedTo="0"/>
    </interval>
    <interval begin="60.00" end="120.00" id="dump_60">
        <edge id="1/1to2/1" sampledSeconds="818.44" traveltime="54.05" overlapTraveltime="54.31" density="13.92" occupancy="6.96" waitingTime="0.00" speed="18.14" departed="15" arrived="0" entered="0" left="15" laneChangedFrom="0" laneChangedTo="0"/>
        <edge id="2/1to3/1" sampledSeconds="513.97" traveltime="50.00" overlapTraveltime="50.25" density="8.74" occupancy="4.37" waitingTime="0.00" speed="19.60" departed="0" arrived="0" entered="15" left="4" laneChangedFrom="0" laneChangedTo="0"/>
        <edge id="3/1to4/1" sampledSeconds="34.56" traveltime="50.00" overlapTraveltime="50.25" density="0.59" occupancy="0.29" waitingTime="0.00" speed="19.60" departed="0" arrived="0" entered="4" left="0" laneChangedFrom="0" laneChangedTo="0"/>
    </interval>
    <interval begin="120.00" end="180.00" id="dump_60">
        <edge id="1/1to2/1" sampledSeconds="818.44" traveltime="54.05" overlapTraveltime="54.31" density="13.92" occupancy="6.96" waitingTime="0.00" speed="18.14" departed="15" arrived="0" entered="0" left="15" laneChangedFrom="0" laneChangedTo="0"/>
        <edge id="2/1to3/1" sampledSeconds="754.28" traveltime="50.00" overlapTraveltime="50.25" density="12.83" occupancy="6.41" waitingTime="0.00" speed="19.60" departed="0" arrived="0" entered="15" left="15" laneChangedFrom="0" laneChangedTo="0"/>
        <edge id="3/1to4/1" sampledSeconds="609.88" traveltime="50.00" overlapTraveltime="50.25" density="10.37" occupancy="5.19" waitingTime="0.00" speed="19.60" departed="0" arrived="0" entered="15" left="7" laneChangedFrom="0" laneChangedTo="0"/>
        <edge id="4/1to5/1" sampledSeconds="86.65" traveltime="50.00" overlapTraveltime="50.25" density="1.47" occupancy="0.74" waitingTime="0.00" speed="19.60" departed="0" arrived="0" entered="7" left="0" laneChangedFrom="0" laneChangedTo="0"/>
    </interval>
    <interval begin="180.00" end="240.00" id="dump_60">
        <edge id="1/1to2/1" sampledSeconds="818.44" traveltime="54.05" overlapTraveltime="54.31" density="13.92" occupancy="6.96" waitingTime="0.00" speed="18.14" departed="15" arrived="0" entered="0" left="15" laneChangedFrom="0" laneChangedTo="0"/>
        <edge id="2/1to3/1" sampledSeconds="754.28" traveltime="50.00" overlapTraveltime="50.25" density="12.83" occupancy="6.41" waitingTime="0.00" speed="19.60" departed="0" arrived="0" entered="15" left="15" laneChangedFrom="0" laneChangedTo="0"/>
        <edge id="3/1to4/1" sampledSeconds="753.88" traveltime="50.00" overlapTraveltime="50.25" density="12.82" occupancy="6.41" waitingTime="0.00" speed="19.60" departed="0" arrived="0" entered="15" left="15" laneChangedFrom="0" laneChangedTo="0"/>
        <edge id="4/1to5/1" sampledSeconds="680.98" traveltime="50.00" overlapTraveltime="50.25" density="11.58" occupancy="5.79" waitingTime="0.00" speed="19.60" departed="0" arrived="0" entered="15" left="9" laneChangedFrom="0" laneChangedTo="0"/>
        <edge id="5/1to6/1" sampledSeconds="163.75" traveltime="50.00" overlapTraveltime="50.25" density="2.79" occupancy="1.39" waitingTime="0.00" speed="19.60" departed="0" arrived="0" entered="9" left="0" laneChangedFrom="0" laneChangedTo="0"/>
    </interval>
    <interval begin="240.00" end="300.00" id="dump_60">
        <edge id="1/1to2/1" sampledSeconds="818.44" traveltime="54.05" overlapTraveltime="54.31" density="13.92" occupancy="6.96" waitingTime="0.00" speed="18.14" departed="15" arrived="0" entered="0" left="15" laneChangedFrom="0" laneChangedTo="0"/>
        <edge id="2/1to3/1" sampledSeconds="754.28" traveltime="50.00" overlapTraveltime="50.25" density="12.83" occupancy="6.41" waitingTime="0.00" speed="19.60" departed="0" arrived="0" entered="15" left="15" laneChangedFrom="0" laneChangedTo="0"/>
        <edge id="3/1to4/1" sampledSeconds="753.88" traveltime="50.00" overlapTraveltime="50.25" density="12.82" occupancy="6.41" waitingTime="0.00" speed="19.60" departed="0" arrived="0" entered="15" left="15" laneChangedFrom="0" laneChangedTo="0"/>
        <edge id="4/1to5/1" sampledSeconds="754.42" traveltime="50.00" overlapTraveltime="50.25" density="12.83" occupancy="6.42" waitingTime="0.00" speed="19.60" departed="0" arrived="0" entered="15" left="15" laneChangedFrom="0" laneChangedTo="0"/>
        <edge id="5/1to6/1" sampledSeconds="728.21" traveltime="50.00" overlapTraveltime="50.25" density="12.39" occupancy="6.19" waitingTime="0.00" speed="19.60" departed="0" arrived="0" entered="15" left="12" laneChangedFrom="0" laneChangedTo="0"/>
        <edge id="6/1to7/1" sampledSeconds="264.25" traveltime="50.00" overlapTraveltime="50.25" density="4.49" occupancy="2.25" waitingTime="0.00" speed="19.60" departed="0" arrived="0" entered="11" left="0" laneChangedFrom="0" laneChangedTo="0"/>
    </interval>
    <interval begin="300.00" end="360.00" id="dump_60">
        <edge id="1/1to2/1" sampledSeconds="818.44" traveltime="54.05" overlapTraveltime="54.31" density="13.92" occupancy="6.96" waitingTime="0.00" speed="18.14" departed="15" arrived="0" entered="0" left="15" laneChangedFrom="0" laneChangedTo="0"/>
        <edge id="2/1to3/1" sampledSeconds="754.28" traveltime="50.00" overlapTraveltime="50.25" density="12.83" occupancy="6.41" waitingTime="0.00" speed="19.60" departed="0" arrived="0" entered="15" left="15" laneChangedFrom="0" laneChangedTo="0"/>
        <edge id="3/1to4/1" sampledSeconds="753.88" traveltime="50.00" overlapTraveltime="50.25" density="12.82" occupancy="6.41" waitingTime="0.00" speed="19.60" departed="0" arrived="0" entered="15" left="15" laneChangedFrom="0" laneChangedTo="0"/>
        <edge id="4/1to5/1" sampledSeconds="754.42" traveltime="50.00" overlapTraveltime="50.25" density="12.83" occupancy="6.42" waitingTime="0.00" speed="19.60" departed="0" arrived="0" entered="15" left="15" laneChangedFrom="0" laneChangedTo="0"/>
        <edge id="5/1to6/1" sampledSeconds="754.02" traveltime="50.00" overlapTraveltime="50.25" density="12.82" occupancy="6.41" waitingTime="0.00" speed="19.60" departed="0" arrived="0" entered="15" left="15" laneChangedFrom="0" laneChangedTo="0"/>
        <edge id="6/1to7/1" sampledSeconds="750.37" traveltime="50.00" overlapTraveltime="50.25" density="12.76" occupancy="6.38" waitingTime="0.00" speed="19.60" departed="0" arrived="0" entered="15" left="14" laneChangedFrom="0" laneChangedTo="0"/>
        <edge id="7/1to8/1" sampledSeconds="385.60" traveltime="50.00" overlapTraveltime="50.25" density="6.56" occupancy="3.28" waitingTime="0.00" speed="19.60" departed="0" arrived="0" entered="14" left="2" laneChangedFrom="0" laneChangedTo="0"/>
        <edge id="8/1to9/1" sampledSeconds="4.41" traveltime="50.00" overlapTraveltime="50.25" density="0.08" occupancy="0.04" waitingTime="0.00" speed="19.60" departed="0" arrived="0" entered="1" left="0" laneChangedFrom="0" laneChangedTo="0"/>
    </interval>
    <interval begin="360.00" end="420.00" id="dump_60">
        <edge id="1/1to2/1" sampledSeconds="818.44" traveltime="54.05" overlapTraveltime="54.31" density="13.92" occupancy="6.96" waitingTime="0.00" speed="18.14" departed="15" arrived="0" entered="0" left="15" laneChangedFrom="0" laneChangedTo="0"/>
        <edge id="2/1to3/1" sampledSeconds="754.28" traveltime="50.00" overlapTraveltime="50.25" density="12.83" occupancy="6.41" waitingTime="0.00" speed="19.60" departed="0" arrived="0" entered="15" left="15" laneChangedFrom="0" laneChangedTo="0"/>
        <edge id="3/1to4/1" sampledSeconds="753.88" traveltime="50.00" overlapTraveltime="50.25" density="12.82" occupancy="6.41" waitingTime="0.00" speed="19.60" departed="0" arrived="0" entered="15" left="15" laneChangedFrom="0" laneChangedTo="0"/>
        <edge id="4/1to5/1" sampledSeconds="754.42" traveltime="50.00" overlapTraveltime="50.25" density="12.83" occupancy="6.42" waitingTime="0.00" speed="19.60" departed="0" arrived="0" entered="15" left="15" laneChangedFrom="0" laneChangedTo="0"/>
        <edge id="5/1to6/1" sampledSeconds="754.02" traveltime="50.00" overlapTraveltime="50.25" density="12.82" occupancy="6.41" waitingTime="0.00" speed="19.60" departed="0" arrived="0" entered="15" left="15" laneChangedFrom="0" laneChangedTo="0"/>
        <edge id="6/1to7/1" sampledSeconds="753.62" traveltime="50.00" overlapTraveltime="50.25" density="12.82" occupancy="6.41" waitingTime="0.00" speed="19.60" departed="0" arrived="0" entered="15" left="15" laneChangedFrom="0" laneChangedTo="0"/>
        <edge id="7/1to8/1" sampledSeconds="753.91" traveltime="50.00" overlapTraveltime="50.25" density="12.82" occupancy="6.41" waitingTime="0.00" speed="19.60" departed="0" arrived="0" entered="15" left="14" laneChangedFrom="0" laneChangedTo="0"/>
        <edge id="8/1to9/1" sampledSeconds="504.13" traveltime="50.00" overlapTraveltime="50.25" density="8.57" occupancy="4.29" waitingTime="0.00" speed="19.60" departed="0" arrived="0" entered="15" left="4" laneChangedFrom="0" laneChangedTo="0"/>
        <edge id="9/1to10/1" sampledSeconds="30.92" traveltime="50.00" overlapTraveltime="50.25" density="0.53" occupancy="0.26" waitingTime="0.00" speed="19.60" departed="0" arrived="0" entered="4" left="0" laneChangedFrom="0" laneChangedTo="0"/>
    </interval>
    <interval begin="420.00" end="480.00" id="dump_60">
        <edge id="1/1to2/1" sampledSeconds="818.44" traveltime="54.05" overlapTraveltime="54.31" density="13.92" occupancy="6.96" waitingTime="0.00" speed="18.14" departed="15" arrived="0" entered="0" left="15" laneChangedFrom="0" laneChangedTo="0"/>
        <edge id="10/1to1/1" sampledSeconds="80.96" traveltime="50.00" overlapTraveltime="50.25" density="1.38" occupancy="0.69" waitingTime="0.00" speed="19.60" departed="0" arrived="0" entered="6" left="0" laneChangedFrom="0" laneChangedTo="0"/>
        <edge id="2/1to3/1" sampledSeconds="754.28" traveltime="50.00" overlapTraveltime="50.25" density="12.83" occupancy="6.41" waitingTime="0.00" speed="19.60" departed="0" arrived="0" entered="15" left="15" laneChangedFrom="0" laneChangedTo="0"/>
        <edge id="3/1to4/1" sampledSeconds="753.88" traveltime="50.00" overlapTraveltime="50.25" density="12.82" occupancy="6.41" waitingTime="0.00" speed="19.60" departed="0" arrived="0" entered="15" left="15" laneChangedFrom="0" laneChangedTo="0"/>
        <edge id="4/1to5/1" sampledSeconds="754.42" traveltime="50.00" overlapTraveltime="50.25" density="12.83" occupancy="6.42" waitingTime="0.00" speed="19.60" departed="0" arrived="0" entered="15" left="15" laneChangedFrom="0" laneChangedTo="0"/>
        <edge id="5/1to6/1" sampledSeconds="754.02" traveltime="50.00" overlapTraveltime="50.25" density="12.82" occupancy="6.41" waitingTime="0.00" speed="19.60" departed="0" arrived="0" entered="15" left="15" laneChangedFrom="0" laneChangedTo="0"/>
        <edge id="6/1to7/1" sampledSeconds="753.62" traveltime="50.00" overlapTraveltime="50.25" density="12.82" occupancy="6.41" waitingTime="0.00" speed="19.60" departed="0" arrived="0" entered="15" left="15" laneChangedFrom="0" laneChangedTo="0"/>
        <edge id="7/1to8/1" sampledSeconds="754.16" traveltime="50.00" overlapTraveltime="50.25" density="12.83" occupancy="6.41" waitingTime="0.00" speed="19.60" departed="0" arrived="0" entered="15" left="15" laneChangedFrom="0" laneChangedTo="0"/>
        <edge id="8/1to9/1" sampledSeconds="753.77" traveltime="50.00" overlapTraveltime="50.25" density="12.82" occupancy="6.41" waitingTime="0.00" speed="19.60" departed="0" arrived="0" entered="15" left="15" laneChangedFrom="0" laneChangedTo="0"/>
        <edge id="9/1to10/1" sampledSeconds="601.93" traveltime="50.00" overlapTraveltime="50.25" density="10.24" occupancy="5.12" waitingTime="0.00" speed="19.60" departed="0" arrived="0" entered="15" left="6" laneChangedFrom="0" laneChangedTo="0"/>
    </interval>
    <interval begin="480.00" end="540.00" id="dump_60">
        <edge id="1/1to2/1" sampledSeconds="813.59" traveltime="53.91" overlapTraveltime="54.18" density="13.84" occupancy="6.92" waitingTime="1.00" speed="18.18" departed="13" arrived="0" entered="2" left="15" laneChangedFrom="0" laneChangedTo="0"/>
        <edge id="10/1to1/1" sampledSeconds="812.80" traveltime="62.96" overlapTraveltime="63.36" density="13.82" occupancy="6.91" waitingTime="15.00" speed="15.55" departed="0" arrived="0" entered="15" left="2" laneChangedFrom="0" laneChangedTo="0"/>
        <edge id="2/1to3/1" sampledSeconds="754.28" traveltime="50.00" overlapTraveltime="50.25" density="12.83" occupancy="6.41" waitingTime="0.00" speed="19.60" departed="0" arrived="0" entered="15" left="15" laneChangedFrom="0" laneChangedTo="0"/>
        <edge id="3/1to4/1" sampledSeconds="753.88" traveltime="50.00" overlapTraveltime="50.25" density="12.82" occupancy="6.41" waitingTime="0.00" speed="19.60" departed="0" arrived="0" entered="15" left="15" laneChangedFrom="0" laneChangedTo="0"/>
        <edge id="4/1to5/1" sampledSeconds="754.42" traveltime="50.00" overlapTraveltime="50.25" density="12.83" occupancy="6.42" waitingTime="0.00" speed="19.60" departed="0" arrived="0" entered="15" left="15" laneChangedFrom="0" laneChangedTo="0"/>
        <edge id="5/1to6/1" sampledSeconds="754.02" traveltime="50.00" overlapTraveltime="50.25" density="12.82" occupancy="6.41" waitingTime="0.00" speed="19.60" departed="0" arrived="0" entered="15" left="15" laneChangedFrom="0" laneChangedTo="0"/>
        <edge id="6/1to7/1" sampledSeconds="753.62" traveltime="50.00" overlapTraveltime="50.25" density="12.82" occupancy="6.41" waitingTime="0.00" speed="19.60" departed="0" arrived="0" entered="15" left="15" laneChangedFrom="0" laneChangedTo="0"/>
        <edge id="7/1to8/1" sampledSeconds="754.16" traveltime="50.00" overlapTraveltime="50.25" density="12.83" occupancy="6.41" waitingTime="0.00" speed="19.60" departed="0" arrived="0" entered="15" left="15" laneChangedFrom="0" laneChangedTo="0"/>
        <edge id="8/1to9/1" sampledSeconds="753.77" traveltime="50.00" overlapTraveltime="50.25" density="12.82" occupancy="6.41" waitingTime="0.00" speed="19.60" departed="0" arrived="0" entered="15" left="15" laneChangedFrom="0" laneChangedTo="0"/>
        <edge id="9/1to10/1" sampledSeconds="754.30" traveltime="50.00" overlapTraveltime="50.25" density="12.83" occupancy="6.41" waitingTime="0.00" speed="19.60" departed="0" arrived="0" entered="15" left="15" laneChangedFrom="0" laneChangedTo="0"/>
    </interval>
    <interval begin="540.00" end="600.00" id="dump_60">
        <edge id="1/1to2/1" sampledSeconds="779.03" traveltime="54.08" overlapTraveltime="54.35" density="13.25" occupancy="6.62" waitingTime="4.00" speed="18.12" departed="11" arrived="0" entered="3" left="14" laneChangedFrom="0" laneChangedTo="0"/>
        <edge id="10/1to1/1" sampledSeconds="1531.94" traveltime="125.51" overlapTraveltime="126.22" density="26.05" occupancy="13.03" waitingTime="151.00" speed="7.80" departed="0" arrived="0" entered="15" left="3" laneChangedFrom="0" laneChangedTo="0"/>
        <edge id="2/1to3/1" sampledSeconds="748.36" traveltime="50.00" overlapTraveltime="50.25" density="12.73" occupancy="6.36" waitingTime="0.00" speed="19.60" departed="0" arrived="0" entered="14" left="15" laneChangedFrom="0" laneChangedTo="0"/>
        <edge id="3/1to4/1" sampledSeconds="753.88" traveltime="50.00" overlapTraveltime="50.25" density="12.82" occupancy="6.41" waitingTime="0.00" speed="19.60" departed="0" arrived="0" entered="15" left="15" laneChangedFrom="0" laneChangedTo="0"/>
        <edge id="4/1to5/1" sampledSeconds="754.42" traveltime="50.00" overlapTraveltime="50.25" density="12.83" occupancy="6.42" waitingTime="0.00" speed="19.60" departed="0" arrived="0" entered="15" left="15" laneChangedFrom="0" laneChangedTo="0"/>
        <edge id="5/1to6/1" sampledSeconds="754.02" traveltime="50.00" overlapTraveltime="50.25" density="12.82" occupancy="6.41" waitingTime="0.00" speed="19.60" departed="0" arrived="0" entered="15" left="15" laneChangedFrom="0" laneChangedTo="0"/>
        <edge id="6/1to7/1" sampledSeconds="753.62" traveltime="50.00" overlapTraveltime="50.25" density="12.82" occupancy="6.41" waitingTime="0.00" speed="19.60" departed="0" arrived="0" entered="15" left="15" laneChangedFrom="0" laneChangedTo="0"/>
        <edge id="7/1to8/1" sampledSeconds="754.16" traveltime="50.00" overlapTraveltime="50.25" density="12.83" occupancy="6.41" waitingTime="0.00" speed="19.60" departed="0" arrived="0" entered="15" left="15" laneChangedFrom="0" laneChangedTo="0"/>
        <edge id="8/1to9/1" sampledSeconds="753.77" traveltime="50.00" overlapTraveltime="50.25" density="12.82" occupancy="6.41" waitingTime="0.00" speed="19.60" departed="0" arrived="0" entered="15" left="15" laneChangedFrom="0" laneChangedTo="0"/>
        <edge id="9/1to10/1" sampledSeconds="754.30" traveltime="50.00" overlapTraveltime="50.25" density="12.83" occupancy="6.41" waitingTime="0.00" speed="19.60" departed="0" arrived="0" entered="15" left="15" laneChangedFrom="0" laneChangedTo="0"/>
    </interval>
    <interval begin="600.00" end="660.00" id="dump_60">
        <edge id="1/1to2/1" sampledSeconds="770.57" traveltime="53.97" overlapTraveltime="54.25" density="13.11" occupancy="6.55" waitingTime="3.00" speed="18.15" departed="10" arrived="0" entered="4" left="14" laneChangedFrom="0" laneChangedTo="0"/>
        <edge id="10/1to1/1" sampledSeconds="2223.76" traveltime="226.71" overlapTraveltime="227.97" density="37.82" occupancy="18.91" waitingTime="328.00" speed="4.32" departed="0" arrived="0" entered="15" left="4" laneChangedFrom="0" laneChangedTo="0"/>
        <edge id="2/1to3/1" sampledSeconds="712.97" traveltime="50.00" overlapTraveltime="50.25" density="12.13" occupancy="6.06" waitingTime="0.00" speed="19.60" departed="0" arrived="0" entered="14" left="15" laneChangedFrom="0" laneChangedTo="0"/>
        <edge id="3/1to4/1" sampledSeconds="742.56" traveltime="50.00" overlapTraveltime="50.25" density="12.63" occupancy="6.31" waitingTime="0.00" speed="19.60" departed="0" arrived="0" entered="15" left="15" laneChangedFrom="0" laneChangedTo="0"/>
        <edge id="4/1to5/1" sampledSeconds="754.42" traveltime="50.00" overlapTraveltime="50.25" density="12.83" occupancy="6.42" waitingTime="0.00" speed="19.60" departed="0" arrived="0" entered="15" left="15" laneChangedFrom="0" laneChangedTo="0"/>
        <edge id="5/1to6/1" sampledSeconds="754.02" traveltime="50.00" overlapTraveltime="50.25" density="12.82" occupancy="6.41" waitingTime="0.00" speed="19.60" departed="0" arrived="0" entered="15" left="15" laneChangedFrom="0" laneChangedTo="0"/>
        <edge id="6/1to7/1" sampledSeconds="753.62" traveltime="50.00" overlapTraveltime="50.25" density="12.82" occupancy="6.41" waitingTime="0.00" speed="19.60" departed="0" arrived="0" entered="15" left="15" laneChangedFrom="0" laneChangedTo="0"/>
        <edge id="7/1to8/1" sampledSeconds="754.16" traveltime="50.00" overlapTraveltime="50.25" density="12.83" occupancy="6.41" waitingTime="0.00" speed="19.60" departed="0" arrived="0" entered="15" left="15" laneChangedFrom="0" laneChangedTo="0"/>
        <edge id="8/1to9/1" sampledSeconds="753.77" traveltime="50.00" overlapTraveltime="50.25" density="12.82" occupancy="6.41" waitingTime="0.00" speed="19.60" departed="0" arrived="0" entered="15" left="15" laneChangedFrom="0" laneChangedTo="0"/>
        <edge id="9/1to10/1" sampledSeconds="754.30" traveltime="50.00" overlapTraveltime="50.25" density="12.83" occupancy="6.41" waitingTime="0.00" speed="19.60" departed="0" arrived="0" entered="15" left="15" laneChangedFrom="0" laneChangedTo="0"/>
    </interval>
    <interval begin="660.00" end="720.00" id="dump_60">
        <edge id="1/1to2/1" sampledSeconds="772.90" traveltime="54.13" overlapTraveltime="54.41" density="13.15" occupancy="6.57" waitingTime="4.00" speed="18.10" departed="11" arrived="0" entered="3" left="14" laneChangedFrom="0" laneChangedTo="0"/>
        <edge id="10/1to1/1" sampledSeconds="2908.66" overlapTraveltime="394.96" density="49.47" occupancy="24.74" waitingTime="480.00" speed="2.49" departed="0" arrived="0" entered="15" left="3" laneChangedFrom="0" laneChangedTo="0"/>
        <edge id="2/1to3/1" sampledSeconds="710.06" traveltime="50.00" overlapTraveltime="50.25" density="12.08" occupancy="6.04" waitingTime="0.00" speed="19.60" departed="0" arrived="0" entered="14" left="14" laneChangedFrom="0" laneChangedTo="0"/>
        <edge id="3/1to4/1" sampledSeconds="709.85" traveltime="50.00" overlapTraveltime="50.25" density="12.07" occupancy="6.04" waitingTime="0.00" speed="19.60" departed="0" arrived="0" entered="14" left="14" laneChangedFrom="0" laneChangedTo="0"/>
        <edge id="4/1to5/1" sampledSeconds="737.11" traveltime="50.00" overlapTraveltime="50.25" density="12.54" occupancy="6.27" waitingTime="0.00" speed="19.60" departed="0" arrived="0" entered="14" left="15" laneChangedFrom="0" laneChangedTo="0"/>
        <edge id="5/1to6/1" sampledSeconds="754.02" traveltime="50.00" overlapTraveltime="50.25" density="12.82" occupancy="6.41" waitingTime="0.00" speed="19.60" departed="0" arrived="0" entered="15" left="15" laneChangedFrom="0" laneChangedTo="0"/>
        <edge id="6/1to7/1" sampledSeconds="753.62" traveltime="50.00" overlapTraveltime="50.25" density="12.82" occupancy="6.41" waitingTime="0.00" speed="19.60" departed="0" arrived="0" entered="15" left="15" laneChangedFrom="0" laneChangedTo="0"/>
        <edge id="7/1to8/1" sampledSeconds="754.16" traveltime="50.00" overlapTraveltime="50.25" density="12.83" occupancy="6.41" waitingTime="0.00" speed="19.60" departed="0" arrived="0" entered="15" left="15" laneChangedFrom="0" laneChangedTo="0"/>
        <edge id="8/1to9/1" sampledSeconds="753.77" traveltime="50.00" overlapTraveltime="50.25" density="12.82" occupancy="6.41" waitingTime="0.00" speed="19.60" departed="0" arrived="0" entered="15" left="15" laneChangedFrom="0" laneChangedTo="0"/>
        <edge id="9/1to10/1" sampledSeconds="754.30" traveltime="50.00" overlapTraveltime="50.25" density="12.83" occupancy="6.41" waitingTime="0.00" speed="19.60" departed="0" arrived="0" entered="15" left="15" laneChangedFrom="0" laneChangedTo="0"/>
    </interval>
    <interval begin="720.00" end="780.00" id="dump_60">
        <edge id="1/1to2/1" sampledSeconds="770.63" traveltime="53.97" overlapTraveltime="54.26" density="13.11" occupancy="6.55" waitingTime="3.00" speed="18.15" departed="11" arrived="0" entered="4" left="15" laneChangedFrom="0" laneChangedTo="0"/>
        <edge id="10/1to1/1" sampledSeconds="3597.32" overlapTraveltime="718.88" density="61.18" occupancy="30.59" waitingTime="692.00" speed="1.37" departed="0" arrived="0" entered="15" left="4" laneChangedFrom="0" laneChangedTo="0"/>
        <edge id="2/1to3/1" sampledSeconds="709.58" traveltime="50.00" overlapTraveltime="50.25" density="12.07" occupancy="6.03" waitingTime="0.00" speed="19.60" departed="0" arrived="0" entered="15" left="14" laneChangedFrom="0" laneChangedTo="0"/>
        <edge id="3/1to4/1" sampledSeconds="709.65" traveltime="50.00" overlapTraveltime="50.25" density="12.07" occupancy="6.03" waitingTime="0.00" speed="19.60" departed="0" arrived="0" entered="14" left="14" laneChangedFrom="0" laneChangedTo="0"/>
        <edge id="4/1to5/1" sampledSeconds="710.13" traveltime="50.00" overlapTraveltime="50.25" density="12.08" occupancy="6.04" waitingTime="0.00" speed="19.60" departed="0" arrived="0" entered="14" left="14" laneChangedFrom="0" laneChangedTo="0"/>
        <edge id="5/1to6/1" sampledSeconds="728.87" traveltime="50.00" overlapTraveltime="50.25" density="12.40" occupancy="6.20" waitingTime="0.00" speed="19.60" departed="0" arrived="0" entered="14" left="14" laneChangedFrom="0" laneChangedTo="0"/>
        <edge id="6/1to7/1" sampledSeconds="753.70" traveltime="50.00" overlapTraveltime="50.25" density="12.82" occupancy="6.41" waitingTime="0.00" speed="19.60" departed="0" arrived="0" entered="15" left="15" laneChangedFrom="0" laneChangedTo="0"/>
        <edge id="7/1to8/1" sampledSeconds="754.16" traveltime="50.00" overlapTraveltime="50.25" density="12.83" occupancy="6.41" waitingTime="0.00" speed="19.60" departed="0" arrived="0" entered="15" left="15" laneChangedFrom="0" laneChangedTo="0"/>
        <edge id="8/1to9/1" sampledSeconds="753.77" traveltime="50.00" overlapTraveltime="50.25" density="12.82" occupancy="6.41" waitingTime="0.00" speed="19.60" departed="0" arrived="0" entered="15" left="15" laneChangedFrom="0" laneChangedTo="0"/>
        <edge id="9/1to10/1" sampledSeconds="756.33" traveltime="50.23" overlapTraveltime="50.50" density="12.86" occupancy="6.43" waitingTime="0.00" speed="19.50" departed="0" arrived="0" entered="15" left="15" laneChangedFrom="0" laneChangedTo="0"/>
    </interval>
    <interval begin="780.00" end="840.00" id="dump_60">
        <edge id="1/1to2/1" sampledSeconds="773.43" traveltime="54.15" overlapTraveltime="54.44" density="13.15" occupancy="6.58" waitingTime="4.00" speed="18.09" departed="11" arrived="0" entered="3" left="14" laneChangedFrom="0" laneChangedTo="0"/>
        <edge id="10/1to1/1" sampledSeconds="4012.09" overlapTraveltime="1109.30" density="68.24" occupancy="34.12" waitingTime="850.00" speed="0.89" departed="0" arrived="0" entered="6" left="3" laneChangedFrom="0" laneChangedTo="0"/>
        <edge id="2/1to3/1" sampledSeconds="709.92" traveltime="50.00" overlapTraveltime="50.25" density="12.07" occupancy="6.04" waitingTime="0.00" speed="19.60" departed="0" arrived="0" entered="14" left="14" laneChangedFrom="0" laneChangedTo="0"/>
        <edge id="3/1to4/1" sampledSeconds="709.65" traveltime="50.00" overlapTraveltime="50.25" density="12.07" occupancy="6.03" waitingTime="0.00" speed="19.60" departed="0" arrived="0" entered="14" left="14" laneChangedFrom="0" laneChangedTo="0"/>
        <edge id="4/1to5/1" sampledSeconds="710.13" traveltime="50.00" overlapTraveltime="50.25" density="12.08" occupancy="6.04" waitingTime="0.00" speed="19.60" departed="0" arrived="0" entered="14" left="14" laneChangedFrom="0" laneChangedTo="0"/>
        <edge id="5/1to6/1" sampledSeconds="709.74" traveltime="50.00" overlapTraveltime="50.25" density="12.07" occupancy="6.04" waitingTime="0.00" speed="19.60" departed="0" arrived="0" entered="14" left="15" laneChangedFrom="0" laneChangedTo="0"/>
        <edge id="6/1to7/1" sampledSeconds="721.59" traveltime="50.00" overlapTraveltime="50.25" density="12.27" occupancy="6.14" waitingTime="0.00" speed="19.60" departed="0" arrived="0" entered="14" left="15" laneChangedFrom="0" laneChangedTo="0"/>
        <edge id="7/1to8/1" sampledSeconds="751.48" traveltime="50.00" overlapTraveltime="50.25" density="12.78" occupancy="6.39" waitingTime="0.00" speed="19.60" departed="0" arrived="0" entered="15" left="15" laneChangedFrom="0" laneChangedTo="0"/>
        <edge id="8/1to9/1" sampledSeconds="753.77" traveltime="50.00" overlapTraveltime="50.25" density="12.82" occupancy="6.41" waitingTime="0.00" speed="19.60" departed="0" arrived="0" entered="15" left="15" laneChangedFrom="0" laneChangedTo="0"/>
        <edge id="9/1to10/1" sampledSeconds="1034.35" traveltime="74.24" overlapTraveltime="74.67" density="17.59" occupancy="8.80" waitingTime="48.00" speed="13.19" departed="0" arrived="0" entered="15" left="6" laneChangedFrom="0" laneChangedTo="0"/>
    </interval>
    <interval begin="840.00" end="900.00" id="dump_60">
        <edge id="1/1to2/1" sampledSeconds="769.37" traveltime="54.01" overlapTraveltime="54.29" density="13.09" occupancy="6.54" waitingTime="3.00" speed="18.14" departed="10" arrived="0" entered="4" left="14" laneChangedFrom="0" laneChangedTo="0"/>
        <edge id="10/1to1/1" sampledSeconds="4049.56" overlapTraveltime="1169.48" density="68.87" occupancy="34.44" waitingTime="911.00" speed="0.84" departed="0" arrived="0" entered="3" left="4" laneChangedFrom="0" laneChangedTo="0"/>
        <edge id="2/1to3/1" sampledSeconds="709.87" traveltime="50.00" overlapTraveltime="50.25" density="12.07" occupancy="6.04" waitingTime="0.00" speed="19.60" departed="0" arrived="0" entered="14" left="14" laneChangedFrom="0" laneChangedTo="0"/>
        <edge id="3/1to4/1" sampledSeconds="709.72" traveltime="50.00" overlapTraveltime="50.25" density="12.07" occupancy="6.04" waitingTime="0.00" speed="19.60" departed="0" arrived="0" entered="14" left="14" laneChangedFrom="0" laneChangedTo="0"/>