<?xml version="1.0" encoding="UTF-8"?>

<!-- generated on Tue Apr  5 13:44:42 2016 by SUMO Version dev-SVN-r20343
<?xml version="1.0" encoding="UTF-8"?>

<configuration xmlns:xsi="http://www.w3.org/2001/XMLSchema-instance" xsi:noNamespaceSchemaLocation="http://sumo.dlr.de/xsd/sumoConfiguration.xsd">

    <input>
        <net-file value="net.net.xml"/>
        <route-files value="input_routes.rou.xml"/>
        <additional-files value="input_additional.add.xml"/>
    </input>

    <time>
        <begin value="0"/>
        <end value="1000"/>
    </time>

    <report>
        <xml-validation value="never"/>
        <duration-log.disable value="true"/>
        <no-step-log value="true"/>
    </report>

</configuration>
-->

<meandata xmlns:xsi="http://www.w3.org/2001/XMLSchema-instance" xsi:noNamespaceSchemaLocation="http://sumo.dlr.de/xsd/meandata_file.xsd">
    <interval begin="0.00" end="300.00" id="dump_300">
        <edge id="1fi" sampledSeconds="687.05" traveltime="25.49" density="9.22" occupancy="4.61" waitingTime="0.00" speed="9.75" departed="20" arrived="0" entered="11" left="21" laneChangedFrom="0" laneChangedTo="0"/>
        <edge id="1o" sampledSeconds="566.36" traveltime="47.10" density="3.86" occupancy="1.93" waitingTime="0.00" speed="10.38" departed="0" arrived="0" entered="12" left="11" laneChangedFrom="0" laneChangedTo="0"/>
        <edge id="1si" sampledSeconds="782.05" traveltime="42.99" density="10.99" occupancy="1.83" waitingTime="302.00" speed="5.52" departed="0" arrived="0" entered="21" left="13" laneChangedFrom="0" laneChangedTo="0"/>
        <edge id="2fi" sampledSeconds="688.30" traveltime="25.33" density="9.23" occupancy="4.62" waitingTime="0.00" speed="9.81" departed="20" arrived="0" entered="9" left="25" laneChangedFrom="0" laneChangedTo="0"/>
        <edge id="2o" sampledSeconds="592.08" traveltime="47.08" density="4.04" occupancy="2.02" waitingTime="0.00" speed="10.38" departed="0" arrived="0" entered="19" left="9" laneChangedFrom="0" laneChangedTo="0"/>
        <edge id="2si" sampledSeconds="823.59" traveltime="38.16" density="11.58" occupancy="1.93" waitingTime="335.00" speed="6.22" departed="0" arrived="0" entered="25" left="12" laneChangedFrom="0" laneChangedTo="0"/>
        <edge id="3fi" sampledSeconds="1000.86" traveltime="25.97" density="13.43" occupancy="6.71" waitingTime="0.00" speed="9.57" departed="40" arrived="0" entered="0" left="36" laneChangedFrom="0" laneChangedTo="0"/>
        <edge id="3o" sampledSeconds="102.86" traveltime="46.90" density="0.70" occupancy="0.35" waitingTime="0.00" speed="10.42" departed="0" arrived="0" entered="6" left="0" laneChangedFrom="0" laneChangedTo="0"/>
        <edge id="3si" sampledSeconds="1257.65" traveltime="38.56" density="17.68" occupancy="2.95" waitingTime="498.00" speed="6.15" departed="0" arrived="0" entered="35" left="32" laneChangedFrom="0" laneChangedTo="0"/>
        <edge id="4fi" sampledSeconds="276.35" traveltime="23.83" density="3.71" occupancy="1.85" waitingTime="0.00" speed="10.43" departed="0" arrived="0" entered="13" left="11" laneChangedFrom="0" laneChangedTo="0"/>
        <edge id="4o" sampledSeconds="950.40" traveltime="46.91" density="6.48" occupancy="3.24" waitingTime="0.00" speed="10.42" departed="0" arrived="0" entered="26" left="14" laneChangedFrom="0" laneChangedTo="0"/>
        <edge id="4si" sampledSeconds="349.60" traveltime="33.22" density="4.91" occupancy="0.82" waitingTime="110.00" speed="7.14" departed="0" arrived="0" entered="11" left="9" laneChangedFrom="0" laneChangedTo="0"/>
    </interval>
    <interval begin="0.00" end="300.00" id="dump_300">
        <edge id="1fi">
            <lane id="1fi_0" sampledSeconds="687.05" traveltime="25.49" density="9.22" occupancy="4.61" waitingTime="0.00" speed="9.75" departed="20" arrived="0" entered="11" left="21" laneChangedFrom="0" laneChangedTo="0"/>
        </edge>
        <edge id="1o">
            <lane id="1o_0" sampledSeconds="566.36" traveltime="47.10" density="3.86" occupancy="1.93" waitingTime="0.00" speed="10.38" departed="0" arrived="0" entered="12" left="11" laneChangedFrom="0" laneChangedTo="0"/>
        </edge>
        <edge id="1si">
            <lane id="1si_0" sampledSeconds="0.00" departed="0" arrived="0" entered="0" left="0" laneChangedFrom="0" laneChangedTo="0"/>
            <lane id="1si_1" sampledSeconds="97.32" traveltime="33.01" density="1.37" occupancy="0.68" waitingTime="40.00" speed="7.18" departed="0" arrived="0" entered="3" left="2" laneChangedFrom="0" laneChangedTo="0"/>
            <lane id="1si_2" sampledSeconds="684.73" traveltime="44.92" density="9.62" occupancy="4.81" waitingTime="262.00" speed="5.28" departed="0" arrived="0" entered="18" left="11" laneChangedFrom="0" laneChangedTo="0"/>
        </edge>
        <edge id="2fi">
            <lane id="2fi_0" sampledSeconds="688.30" traveltime="25.33" density="9.23" occupancy="4.62" waitingTime="0.00" speed="9.81" departed="20" arrived="0" entered="9" left="25" laneChangedFrom="0" laneChangedTo="0"/>
        </edge>
        <edge id="2o">
            <lane id="2o_0" sampledSeconds="592.08" traveltime="47.08" density="4.04" occupancy="2.02" waitingTime="0.00" speed="10.38" departed="0" arrived="0" entered="19" left="9" laneChangedFrom="0" laneChangedTo="0"/>
        </edge>
        <edge id="2si">
            <lane id="2si_0" sampledSeconds="254.55" traveltime="46.95" density="3.58" occupancy="1.79" waitingTime="118.00" speed="5.05" departed="0" arrived="0" entered="7" left="0" laneChangedFrom="0" laneChangedTo="0"/>
            <lane id="2si_1" sampledSeconds="569.05" traveltime="35.21" density="8.00" occupancy="4.00" waitingTime="217.00" speed="6.74" departed="0" arrived="0" entered="18" left="12" laneChangedFrom="0" laneChangedTo="0"/>
            <lane id="2si_2" sampledSeconds="0.00" departed="0" arrived="0" entered="0" left="0" laneChangedFrom="0" laneChangedTo="0"/>
        </edge>
        <edge id="3fi">
            <lane id="3fi_0" sampledSeconds="1000.86" traveltime="25.97" density="13.43" occupancy="6.71" waitingTime="0.00" speed="9.57" departed="40" arrived="0" entered="0" left="36" laneChangedFrom="0" laneChangedTo="0"/>
        </edge>
        <edge id="3o">
            <lane id="3o_0" sampledSeconds="102.86" traveltime="46.90" density="0.70" occupancy="0.35" waitingTime="0.00" speed="10.42" departed="0" arrived="0" entered="6" left="0" laneChangedFrom="0" laneChangedTo="0"/>
        </edge>
        <edge id="3si">
            <lane id="3si_0" sampledSeconds="650.48" traveltime="39.64" density="9.14" occupancy="4.57" waitingTime="266.00" speed="5.98" departed="0" arrived="0" entered="18" left="16" laneChangedFrom="0" laneChangedTo="0"/>
            <lane id="3si_1" sampledSeconds="607.17" traveltime="37.47" density="8.53" occupancy="4.27" waitingTime="232.00" speed="6.33" departed="0" arrived="0" entered="17" left="16" laneChangedFrom="0" laneChangedTo="0"/>
            <lane id="3si_2" sampledSeconds="0.00" departed="0" arrived="0" entered="0" left="0" laneChangedFrom="0" laneChangedTo="0"/>
        </edge>
        <edge id="4fi">
            <lane id="4fi_0" sampledSeconds="276.35" traveltime="23.83" density="3.71" occupancy="1.85" waitingTime="0.00" speed="10.43" departed="0" arrived="0" entered="13" left="11" laneChangedFrom="0" laneChangedTo="0"/>
        </edge>
        <edge id="4o">
            <lane id="4o_0" sampledSeconds="950.40" traveltime="46.91" density="6.48" occupancy="3.24" waitingTime="0.00" speed="10.42" departed="0" arrived="0" entered="26" left="14" laneChangedFrom="0" laneChangedTo="0"/>
        </edge>
        <edge id="4si">
            <lane id="4si_0" sampledSeconds="0.00" departed="0" arrived="0" entered="0" left="0" laneChangedFrom="0" laneChangedTo="0"/>
            <lane id="4si_1" sampledSeconds="129.54" traveltime="18.14" density="1.82" occupancy="0.91" waitingTime="0.00" speed="13.07" departed="0" arrived="0" entered="7" left="6" laneChangedFrom="0" laneChangedTo="0"/>
            <lane id="4si_2" sampledSeconds="220.06" traveltime="65.01" density="3.09" occupancy="1.55" waitingTime="110.00" speed="3.65" departed="0" arrived="0" entered="4" left="3" laneChangedFrom="0" laneChangedTo="0"/>
        </edge>
    </interval>
    <interval begin="900.00" end="1000.00" id="dump_300">
        <edge id="1fi" sampledSeconds="1306.84" traveltime="38.33" density="52.59" occupancy="26.29" waitingTime="108.00" speed="6.48" departed="10" arrived="6" entered="28" left="20" laneChangedFrom="0" laneChangedTo="0"/>
        <edge id="1o" sampledSeconds="1190.09" traveltime="47.16" density="24.35" occupancy="12.18" waitingTime="0.00" speed="10.36" departed="0" arrived="0" entered="25" left="28" laneChangedFrom="0" laneChangedTo="0"/>
        <edge id="1si" sampledSeconds="3504.92" traveltime="207.42" density="147.79" occupancy="24.63" waitingTime="1754.00" speed="1.14" departed="0" arrived="0" entered="19" left="27" laneChangedFrom="0" laneChangedTo="0"/>
        <edge id="2fi" sampledSeconds="787.77" traveltime="24.42" density="31.70" occupancy="15.85" waitingTime="0.00" speed="10.17" departed="9" arrived="9" entered="24" left="22" laneChangedFrom="0" laneChangedTo="0"/>
        <edge id="2o" sampledSeconds="1217.99" traveltime="46.90" density="24.93" occupancy="12.46" waitingTime="0.00" speed="10.42" departed="0" arrived="0" entered="26" left="24" laneChangedFrom="0" laneChangedTo="0"/>
        <edge id="2si" sampledSeconds="1417.01" traveltime="72.68" density="59.75" occupancy="9.96" waitingTime="829.00" speed="3.26" departed="0" arrived="0" entered="22" left="16" laneChangedFrom="0" laneChangedTo="0"/>
        <edge id="3fi" sampledSeconds="926.25" traveltime="24.72" density="37.27" occupancy="18.64" waitingTime="0.00" speed="10.05" departed="15" arrived="15" entered="21" left="22" laneChangedFrom="0" laneChangedTo="0"/>
        <edge id="3o" sampledSeconds="1039.68" traveltime="47.15" density="21.28" occupancy="10.64" waitingTime="0.00" speed="10.36" departed="0" arrived="0" entered="20" left="22" laneChangedFrom="0" laneChangedTo="0"/>
        <edge id="3si" sampledSeconds="994.98" traveltime="49.19" density="41.96" occupancy="6.99" waitingTime="436.00" speed="4.82" departed="0" arrived="0" entered="22" left="27" laneChangedFrom="0" laneChangedTo="0"/>
        <edge id="4fi" sampledSeconds="368.27" traveltime="23.75" density="14.82" occupancy="7.41" waitingTime="0.00" speed="10.46" departed="0" arrived="0" entered="17" left="15" laneChangedFrom="0" laneChangedTo="0"/>
        <edge id="4o" sampledSeconds="904.07" traveltime="47.02" density="18.50" occupancy="9.25" waitingTime="0.00" speed="10.39" departed="0" arrived="0" entered="21" left="17" laneChangedFrom="0" laneChangedTo="0"/>
        <edge id="4si" sampledSeconds="963.34" traveltime="54.45" density="40.62" occupancy="6.77" waitingTime="462.00" speed="4.36" departed="0" arrived="0" entered="15" left="28" laneChangedFrom="0" laneChangedTo="0"/>
    </interval>
</meandata>
