<?xml version="1.0" encoding="UTF-8"?>

<!-- generated on Tue Apr  5 13:44:42 2016 by SUMO Version dev-SVN-r20343
<?xml version="1.0" encoding="UTF-8"?>

<configuration xmlns:xsi="http://www.w3.org/2001/XMLSchema-instance" xsi:noNamespaceSchemaLocation="http://sumo.dlr.de/xsd/sumoConfiguration.xsd">

    <input>
        <net-file value="net.net.xml"/>
        <route-files value="input_routes.rou.xml"/>
        <additional-files value="input_additional.add.xml"/>
    </input>

    <time>
        <begin value="0"/>
        <end value="1000"/>
    </time>

    <report>
        <xml-validation value="never"/>
        <duration-log.disable value="true"/>
        <no-step-log value="true"/>
    </report>

</configuration>
-->

<meandata xmlns:xsi="http://www.w3.org/2001/XMLSchema-instance" xsi:noNamespaceSchemaLocation="http://sumo.dlr.de/xsd/meandata_file.xsd">
    <interval begin="0.00" end="900.00" id="dump_900">
        <edge id="1fi" sampledSeconds="5009.19" traveltime="24.69" density="22.40" occupancy="11.20" waitingTime="0.00" speed="10.07" departed="79" arrived="14" entered="125" left="181" laneChangedFrom="0" laneChangedTo="0"/>
        <edge id="1o" sampledSeconds="6302.43" traveltime="47.05" density="14.33" occupancy="7.17" waitingTime="0.00" speed="10.39" departed="0" arrived="0" entered="137" left="125" laneChangedFrom="0" laneChangedTo="0"/>
        <edge id="1si" sampledSeconds="14380.39" traveltime="111.42" density="67.38" occupancy="11.23" waitingTime="7879.00" speed="2.13" departed="0" arrived="0" entered="181" left="147" laneChangedFrom="0" laneChangedTo="0"/>
        <edge id="2fi" sampledSeconds="5799.46" traveltime="24.56" density="25.93" occupancy="12.97" waitingTime="0.00" speed="10.12" departed="80" arrived="55" entered="155" left="172" laneChangedFrom="0" laneChangedTo="0"/>
        <edge id="2o" sampledSeconds="7620.99" traveltime="47.06" density="17.33" occupancy="8.66" waitingTime="0.00" speed="10.38" departed="0" arrived="0" entered="164" left="155" laneChangedFrom="0" laneChangedTo="0"/>
        <edge id="2si" sampledSeconds="8815.94" traveltime="56.87" density="41.31" occupancy="6.88" waitingTime="4399.00" speed="4.17" departed="0" arrived="0" entered="172" left="162" laneChangedFrom="0" laneChangedTo="0"/>
        <edge id="3fi" sampledSeconds="6172.74" traveltime="25.07" density="27.60" occupancy="13.80" waitingTime="0.00" speed="9.91" departed="140" arrived="79" entered="106" left="158" laneChangedFrom="0" laneChangedTo="0"/>
        <edge id="3o" sampledSeconds="5354.82" traveltime="47.12" density="12.18" occupancy="6.09" waitingTime="0.00" speed="10.37" departed="0" arrived="0" entered="120" left="106" laneChangedFrom="0" laneChangedTo="0"/>
        <edge id="3si" sampledSeconds="7356.71" traveltime="49.99" density="34.47" occupancy="5.74" waitingTime="3601.00" speed="4.74" departed="0" arrived="0" entered="158" left="142" laneChangedFrom="0" laneChangedTo="0"/>
        <edge id="4fi" sampledSeconds="3820.06" traveltime="23.84" density="17.08" occupancy="8.54" waitingTime="0.00" speed="10.42" departed="0" arrived="0" entered="157" left="157" laneChangedFrom="0" laneChangedTo="0"/>
        <edge id="4o" sampledSeconds="7680.07" traveltime="47.01" density="17.46" occupancy="8.73" waitingTime="0.00" speed="10.39" departed="0" arrived="0" entered="167" left="157" laneChangedFrom="0" laneChangedTo="0"/>
        <edge id="4si" sampledSeconds="7339.06" traveltime="52.08" density="34.39" occupancy="5.73" waitingTime="3408.00" speed="4.55" departed="0" arrived="0" entered="157" left="137" laneChangedFrom="0" laneChangedTo="0"/>
    </interval>
    <interval begin="0.00" end="900.00" id="dump_900">
        <edge id="1fi">
            <lane id="1fi_0" sampledSeconds="5009.19" traveltime="24.69" density="22.40" occupancy="11.20" waitingTime="0.00" speed="10.07" departed="79" arrived="14" entered="125" left="181" laneChangedFrom="0" laneChangedTo="0"/>
        </edge>
        <edge id="1o">
            <lane id="1o_0" sampledSeconds="6302.43" traveltime="47.05" density="14.33" occupancy="7.17" waitingTime="0.00" speed="10.39" departed="0" arrived="0" entered="137" left="125" laneChangedFrom="0" laneChangedTo="0"/>
        </edge>
        <edge id="1si">
            <lane id="1si_0" sampledSeconds="2126.47" traveltime="63.93" density="9.96" occupancy="4.98" waitingTime="1189.00" speed="3.71" departed="0" arrived="0" entered="41" left="33" laneChangedFrom="0" laneChangedTo="0"/>
            <lane id="1si_1" sampledSeconds="1371.33" traveltime="21.04" density="6.43" occupancy="3.21" waitingTime="164.00" speed="11.27" departed="0" arrived="0" entered="64" left="64" laneChangedFrom="0" laneChangedTo="0"/>
            <lane id="1si_2" sampledSeconds="10882.59" traveltime="355.48" density="50.99" occupancy="25.49" waitingTime="6526.00" speed="0.67" departed="0" arrived="0" entered="76" left="50" laneChangedFrom="0" laneChangedTo="0"/>
        </edge>
        <edge id="2fi">
            <lane id="2fi_0" sampledSeconds="5799.46" traveltime="24.56" density="25.93" occupancy="12.97" waitingTime="0.00" speed="10.12" departed="80" arrived="55" entered="155" left="172" laneChangedFrom="0" laneChangedTo="0"/>
        </edge>
        <edge id="2o">
            <lane id="2o_0" sampledSeconds="7620.99" traveltime="47.06" density="17.33" occupancy="8.66" waitingTime="0.00" speed="10.38" departed="0" arrived="0" entered="164" left="155" laneChangedFrom="0" laneChangedTo="0"/>
        </edge>
        <edge id="2si">
            <lane id="2si_0" sampledSeconds="3469.53" traveltime="65.13" density="16.26" occupancy="8.13" waitingTime="1975.00" speed="3.64" departed="0" arrived="0" entered="59" left="56" laneChangedFrom="0" laneChangedTo="0"/>
            <lane id="2si_1" sampledSeconds="3086.79" traveltime="41.41" density="14.46" occupancy="7.23" waitingTime="1346.00" speed="5.73" departed="0" arrived="0" entered="78" left="75" laneChangedFrom="0" laneChangedTo="0"/>
            <lane id="2si_2" sampledSeconds="2259.62" traveltime="82.98" density="10.59" occupancy="5.29" waitingTime="1078.00" speed="2.86" departed="0" arrived="0" entered="35" left="31" laneChangedFrom="0" laneChangedTo="0"/>
        </edge>
        <edge id="3fi">
            <lane id="3fi_0" sampledSeconds="6172.74" traveltime="25.07" density="27.60" occupancy="13.80" waitingTime="0.00" speed="9.91" departed="140" arrived="79" entered="106" left="158" laneChangedFrom="0" laneChangedTo="0"/>
        </edge>
        <edge id="3o">
            <lane id="3o_0" sampledSeconds="5354.82" traveltime="47.12" density="12.18" occupancy="6.09" waitingTime="0.00" speed="10.37" departed="0" arrived="0" entered="120" left="106" laneChangedFrom="0" laneChangedTo="0"/>
        </edge>
        <edge id="3si">
            <lane id="3si_0" sampledSeconds="2891.72" traveltime="45.75" density="13.55" occupancy="6.77" waitingTime="1382.00" speed="5.18" departed="0" arrived="0" entered="67" left="61" laneChangedFrom="0" laneChangedTo="0"/>
            <lane id="3si_1" sampledSeconds="3229.63" traveltime="51.50" density="15.13" occupancy="7.57" waitingTime="1692.00" speed="4.61" departed="0" arrived="0" entered="66" left="61" laneChangedFrom="0" laneChangedTo="0"/>
            <lane id="3si_2" sampledSeconds="1235.37" traveltime="58.15" density="5.79" occupancy="2.89" waitingTime="527.00" speed="4.08" departed="0" arrived="0" entered="25" left="20" laneChangedFrom="0" laneChangedTo="0"/>
        </edge>
        <edge id="4fi">
            <lane id="4fi_0" sampledSeconds="3820.06" traveltime="23.84" density="17.08" occupancy="8.54" waitingTime="0.00" speed="10.42" departed="0" arrived="0" entered="157" left="157" laneChangedFrom="0" laneChangedTo="0"/>
        </edge>
        <edge id="4o">
            <lane id="4o_0" sampledSeconds="7680.07" traveltime="47.01" density="17.46" occupancy="8.73" waitingTime="0.00" speed="10.39" departed="0" arrived="0" entered="167" left="157" laneChangedFrom="0" laneChangedTo="0"/>
        </edge>
        <edge id="4si">
            <lane id="4si_0" sampledSeconds="3083.34" traveltime="69.50" density="14.45" occupancy="7.22" waitingTime="1791.00" speed="3.41" departed="0" arrived="0" entered="51" left="42" laneChangedFrom="0" laneChangedTo="0"/>
            <lane id="4si_1" sampledSeconds="1086.48" traveltime="18.14" density="5.09" occupancy="2.55" waitingTime="0.00" speed="13.08" departed="0" arrived="0" entered="61" left="56" laneChangedFrom="0" laneChangedTo="0"/>
            <lane id="4si_2" sampledSeconds="3169.24" traveltime="86.49" density="14.85" occupancy="7.42" waitingTime="1617.00" speed="2.74" departed="0" arrived="0" entered="45" left="39" laneChangedFrom="0" laneChangedTo="0"/>
        </edge>
    </interval>
    <interval begin="900.00" end="1000.00" id="dump_900">
        <edge id="1fi" sampledSeconds="1306.84" traveltime="38.33" density="52.59" occupancy="26.29" waitingTime="108.00" speed="6.48" departed="10" arrived="6" entered="28" left="20" laneChangedFrom="0" laneChangedTo="0"/>
        <edge id="1o" sampledSeconds="1190.09" traveltime="47.16" density="24.35" occupancy="12.18" waitingTime="0.00" speed="10.36" departed="0" arrived="0" entered="25" left="28" laneChangedFrom="0" laneChangedTo="0"/>
        <edge id="1si" sampledSeconds="3504.92" traveltime="207.42" density="147.79" occupancy="24.63" waitingTime="1754.00" speed="1.14" departed="0" arrived="0" entered="19" left="27" laneChangedFrom="0" laneChangedTo="0"/>
        <edge id="2fi" sampledSeconds="787.77" traveltime="24.42" density="31.70" occupancy="15.85" waitingTime="0.00" speed="10.17" departed="9" arrived="9" entered="24" left="22" laneChangedFrom="0" laneChangedTo="0"/>
        <edge id="2o" sampledSeconds="1217.99" traveltime="46.90" density="24.93" occupancy="12.46" waitingTime="0.00" speed="10.42" departed="0" arrived="0" entered="26" left="24" laneChangedFrom="0" laneChangedTo="0"/>
        <edge id="2si" sampledSeconds="1417.01" traveltime="72.68" density="59.75" occupancy="9.96" waitingTime="829.00" speed="3.26" departed="0" arrived="0" entered="22" left="16" laneChangedFrom="0" laneChangedTo="0"/>
        <edge id="3fi" sampledSeconds="926.25" traveltime="24.72" density="37.27" occupancy="18.64" waitingTime="0.00" speed="10.05" departed="15" arrived="15" entered="21" left="22" laneChangedFrom="0" laneChangedTo="0"/>
        <edge id="3o" sampledSeconds="1039.68" traveltime="47.15" density="21.28" occupancy="10.64" waitingTime="0.00" speed="10.36" departed="0" arrived="0" entered="20" left="22" laneChangedFrom="0" laneChangedTo="0"/>
        <edge id="3si" sampledSeconds="994.98" traveltime="49.19" density="41.96" occupancy="6.99" waitingTime="436.00" speed="4.82" departed="0" arrived="0" entered="22" left="27" laneChangedFrom="0" laneChangedTo="0"/>
        <edge id="4fi" sampledSeconds="368.27" traveltime="23.75" density="14.82" occupancy="7.41" waitingTime="0.00" speed="10.46" departed="0" arrived="0" entered="17" left="15" laneChangedFrom="0" laneChangedTo="0"/>
        <edge id="4o" sampledSeconds="904.07" traveltime="47.02" density="18.50" occupancy="9.25" waitingTime="0.00" speed="10.39" departed="0" arrived="0" entered="21" left="17" laneChangedFrom="0" laneChangedTo="0"/>
        <edge id="4si" sampledSeconds="963.34" traveltime="54.45" density="40.62" occupancy="6.77" waitingTime="462.00" speed="4.36" departed="0" arrived="0" entered="15" left="28" laneChangedFrom="0" laneChangedTo="0"/>
    </interval>
</meandata>
