<?xml version="1.0" encoding="UTF-8"?>

<!-- generated on Wed Jun  1 10:58:50 2016 by SUMO Version dev-SVN-r20832
<?xml version="1.0" encoding="UTF-8"?>

<configuration xmlns:xsi="http://www.w3.org/2001/XMLSchema-instance" xsi:noNamespaceSchemaLocation="http://sumo.dlr.de/xsd/sumoConfiguration.xsd">

    <input>
        <net-file value="net.net.xml"/>
        <route-files value="input_routes.rou.xml"/>
        <additional-files value="input_additional.add.xml"/>
    </input>

    <time>
        <begin value="0"/>
        <end value="1000"/>
    </time>

    <report>
        <xml-validation value="never"/>
        <duration-log.disable value="true"/>
        <no-step-log value="true"/>
    </report>

</configuration>
-->

<meandata xmlns:xsi="http://www.w3.org/2001/XMLSchema-instance" xsi:noNamespaceSchemaLocation="http://sumo.dlr.de/xsd/meandata_file.xsd">
    <interval begin="0.00" end="300.00" id="dump_300">
        <edge id="1fi" sampledSeconds="686.21" traveltime="25.49" density="9.20" occupancy="4.60" waitingTime="0.00" speed="9.75" departed="20" arrived="0" entered="11" left="21" laneChangedFrom="0" laneChangedTo="0"/>
        <edge id="1o" sampledSeconds="566.22" traveltime="47.11" density="3.86" occupancy="1.93" waitingTime="0.00" speed="10.37" departed="0" arrived="0" entered="12" left="11" laneChangedFrom="0" laneChangedTo="0"/>
        <edge id="1si" sampledSeconds="783.03" traveltime="40.07" density="11.01" occupancy="1.83" waitingTime="304.00" speed="5.92" departed="0" arrived="0" entered="21" left="13" laneChangedFrom="0" laneChangedTo="0"/>
        <edge id="2fi" sampledSeconds="688.48" traveltime="25.34" density="9.24" occupancy="4.62" waitingTime="0.00" speed="9.81" departed="20" arrived="0" entered="9" left="25" laneChangedFrom="0" laneChangedTo="0"/>
        <edge id="2o" sampledSeconds="590.12" traveltime="46.99" density="4.03" occupancy="2.01" waitingTime="0.00" speed="10.40" departed="0" arrived="0" entered="19" left="9" laneChangedFrom="0" laneChangedTo="0"/>
        <edge id="2si" sampledSeconds="823.40" traveltime="35.87" density="11.57" occupancy="1.93" waitingTime="341.00" speed="6.61" departed="0" arrived="0" entered="25" left="12" laneChangedFrom="0" laneChangedTo="0"/>
        <edge id="3fi" sampledSeconds="1000.09" traveltime="26.03" density="13.42" occupancy="6.71" waitingTime="0.00" speed="9.55" departed="40" arrived="0" entered="0" left="35" laneChangedFrom="0" laneChangedTo="0"/>
        <edge id="3o" sampledSeconds="102.88" traveltime="47.01" density="0.70" occupancy="0.35" waitingTime="0.00" speed="10.40" departed="0" arrived="0" entered="6" left="0" laneChangedFrom="0" laneChangedTo="0"/>
        <edge id="3si" sampledSeconds="1257.38" traveltime="36.99" density="17.67" occupancy="2.95" waitingTime="498.00" speed="6.41" departed="0" arrived="0" entered="35" left="32" laneChangedFrom="0" laneChangedTo="0"/>
        <edge id="4fi" sampledSeconds="275.96" traveltime="23.81" density="3.70" occupancy="1.85" waitingTime="0.00" speed="10.43" departed="0" arrived="0" entered="13" left="11" laneChangedFrom="0" laneChangedTo="0"/>
        <edge id="4o" sampledSeconds="951.49" traveltime="46.98" density="6.49" occupancy="3.25" waitingTime="0.00" speed="10.40" departed="0" arrived="0" entered="26" left="13" laneChangedFrom="0" laneChangedTo="0"/>
        <edge id="4si" sampledSeconds="349.54" traveltime="31.50" density="4.91" occupancy="0.82" waitingTime="113.00" speed="7.53" departed="0" arrived="0" entered="11" left="10" laneChangedFrom="0" laneChangedTo="0"/>
    </interval>
    <interval begin="0.00" end="300.00" id="dump_300">
        <edge id="1fi">
            <lane id="1fi_0" sampledSeconds="686.21" traveltime="25.49" density="9.20" occupancy="4.60" waitingTime="0.00" speed="9.75" departed="20" arrived="0" entered="11" left="21" laneChangedFrom="0" laneChangedTo="0"/>
        </edge>
        <edge id="1o">
            <lane id="1o_0" sampledSeconds="566.22" traveltime="47.11" density="3.86" occupancy="1.93" waitingTime="0.00" speed="10.37" departed="0" arrived="0" entered="12" left="11" laneChangedFrom="0" laneChangedTo="0"/>
        </edge>
        <edge id="1si">
            <lane id="1si_0" sampledSeconds="0.00" departed="0" arrived="0" entered="0" left="0" laneChangedFrom="0" laneChangedTo="0"/>
            <lane id="1si_1" sampledSeconds="97.32" traveltime="32.20" density="1.37" occupancy="0.68" waitingTime="40.00" speed="7.36" departed="0" arrived="0" entered="3" left="2" laneChangedFrom="0" laneChangedTo="0"/>
            <lane id="1si_2" sampledSeconds="685.70" traveltime="41.51" density="9.64" occupancy="4.82" waitingTime="264.00" speed="5.71" departed="0" arrived="0" entered="18" left="11" laneChangedFrom="0" laneChangedTo="0"/>
        </edge>
        <edge id="2fi">
            <lane id="2fi_0" sampledSeconds="688.48" traveltime="25.34" density="9.24" occupancy="4.62" waitingTime="0.00" speed="9.81" departed="20" arrived="0" entered="9" left="25" laneChangedFrom="0" laneChangedTo="0"/>
        </edge>
        <edge id="2o">
            <lane id="2o_0" sampledSeconds="590.12" traveltime="46.99" density="4.03" occupancy="2.01" waitingTime="0.00" speed="10.40" departed="0" arrived="0" entered="19" left="9" laneChangedFrom="0" laneChangedTo="0"/>
        </edge>
        <edge id="2si">
            <lane id="2si_0" sampledSeconds="254.50" traveltime="41.28" density="3.58" occupancy="1.79" waitingTime="123.00" speed="5.74" departed="0" arrived="0" entered="7" left="0" laneChangedFrom="0" laneChangedTo="0"/>
            <lane id="2si_1" sampledSeconds="568.90" traveltime="33.88" density="8.00" occupancy="4.00" waitingTime="218.00" speed="7.00" departed="0" arrived="0" entered="18" left="12" laneChangedFrom="0" laneChangedTo="0"/>
            <lane id="2si_2" sampledSeconds="0.00" departed="0" arrived="0" entered="0" left="0" laneChangedFrom="0" laneChangedTo="0"/>
        </edge>
        <edge id="3fi">
            <lane id="3fi_0" sampledSeconds="1000.09" traveltime="26.03" density="13.42" occupancy="6.71" waitingTime="0.00" speed="9.55" departed="40" arrived="0" entered="0" left="35" laneChangedFrom="0" laneChangedTo="0"/>
        </edge>
        <edge id="3o">
            <lane id="3o_0" sampledSeconds="102.88" traveltime="47.01" density="0.70" occupancy="0.35" waitingTime="0.00" speed="10.40" departed="0" arrived="0" entered="6" left="0" laneChangedFrom="0" laneChangedTo="0"/>
        </edge>
        <edge id="3si">
            <lane id="3si_0" sampledSeconds="652.44" traveltime="38.04" density="9.17" occupancy="4.59" waitingTime="266.00" speed="6.23" departed="0" arrived="0" entered="18" left="16" laneChangedFrom="0" laneChangedTo="0"/>
            <lane id="3si_1" sampledSeconds="604.94" traveltime="35.91" density="8.50" occupancy="4.25" waitingTime="232.00" speed="6.60" departed="0" arrived="0" entered="17" left="16" laneChangedFrom="0" laneChangedTo="0"/>
            <lane id="3si_2" sampledSeconds="0.00" departed="0" arrived="0" entered="0" left="0" laneChangedFrom="0" laneChangedTo="0"/>
        </edge>
        <edge id="4fi">
            <lane id="4fi_0" sampledSeconds="275.96" traveltime="23.81" density="3.70" occupancy="1.85" waitingTime="0.00" speed="10.43" departed="0" arrived="0" entered="13" left="11" laneChangedFrom="0" laneChangedTo="0"/>
        </edge>
        <edge id="4o">
            <lane id="4o_0" sampledSeconds="951.49" traveltime="46.98" density="6.49" occupancy="3.25" waitingTime="0.00" speed="10.40" departed="0" arrived="0" entered="26" left="13" laneChangedFrom="0" laneChangedTo="0"/>
        </edge>
        <edge id="4si">
            <lane id="4si_0" sampledSeconds="0.00" departed="0" arrived="0" entered="0" left="0" laneChangedFrom="0" laneChangedTo="0"/>
            <lane id="4si_1" sampledSeconds="129.71" traveltime="18.15" density="1.82" occupancy="0.91" waitingTime="0.00" speed="13.06" departed="0" arrived="0" entered="7" left="7" laneChangedFrom="0" laneChangedTo="0"/>
            <lane id="4si_2" sampledSeconds="219.82" traveltime="55.62" density="3.09" occupancy="1.54" waitingTime="113.00" speed="4.26" departed="0" arrived="0" entered="4" left="3" laneChangedFrom="0" laneChangedTo="0"/>
        </edge>
    </interval>
    <interval begin="900.00" end="1000.00" id="dump_300">
        <edge id="1fi" sampledSeconds="1172.20" traveltime="32.44" density="47.17" occupancy="23.59" waitingTime="63.00" speed="7.66" departed="13" arrived="7" entered="26" left="21" laneChangedFrom="0" laneChangedTo="0"/>
        <edge id="1o" sampledSeconds="1134.41" traveltime="47.24" density="23.22" occupancy="11.61" waitingTime="0.00" speed="10.34" departed="0" arrived="0" entered="24" left="26" laneChangedFrom="0" laneChangedTo="0"/>
        <edge id="1si" sampledSeconds="3549.70" traveltime="135.06" density="149.68" occupancy="24.95" waitingTime="1829.00" speed="1.76" departed="0" arrived="0" entered="20" left="28" laneChangedFrom="0" laneChangedTo="0"/>
        <edge id="2fi" sampledSeconds="836.09" traveltime="24.62" density="33.65" occupancy="16.82" waitingTime="0.00" speed="10.09" departed="10" arrived="10" entered="23" left="23" laneChangedFrom="0" laneChangedTo="0"/>
        <edge id="2o" sampledSeconds="1117.21" traveltime="47.05" density="22.86" occupancy="11.43" waitingTime="0.00" speed="10.39" departed="0" arrived="0" entered="23" left="23" laneChangedFrom="0" laneChangedTo="0"/>
        <edge id="2si" sampledSeconds="1355.62" traveltime="56.70" density="57.16" occupancy="9.53" waitingTime="700.00" speed="4.18" departed="0" arrived="0" entered="23" left="18" laneChangedFrom="0" laneChangedTo="0"/>
        <edge id="3fi" sampledSeconds="904.76" traveltime="24.70" density="36.41" occupancy="18.20" waitingTime="0.00" speed="10.06" departed="13" arrived="13" entered="22" left="24" laneChangedFrom="0" laneChangedTo="0"/>
        <edge id="3o" sampledSeconds="1180.19" traveltime="47.00" density="24.15" occupancy="12.08" waitingTime="0.00" speed="10.40" departed="0" arrived="0" entered="25" left="22" laneChangedFrom="0" laneChangedTo="0"/>
        <edge id="3si" sampledSeconds="1022.99" traveltime="45.18" density="43.14" occupancy="7.19" waitingTime="430.00" speed="5.25" departed="0" arrived="0" entered="24" left="27" laneChangedFrom="0" laneChangedTo="0"/>
        <edge id="4fi" sampledSeconds="476.14" traveltime="23.80" density="19.16" occupancy="9.58" waitingTime="0.00" speed="10.44" departed="0" arrived="0" entered="21" left="20" laneChangedFrom="0" laneChangedTo="0"/>
        <edge id="4o" sampledSeconds="1053.58" traveltime="46.95" density="21.56" occupancy="10.78" waitingTime="0.00" speed="10.41" departed="0" arrived="0" entered="23" left="21" laneChangedFrom="0" laneChangedTo="0"/>
        <edge id="4si" sampledSeconds="1104.22" traveltime="49.02" density="46.56" occupancy="7.76" waitingTime="522.00" speed="4.84" departed="0" arrived="0" entered="20" left="27" laneChangedFrom="0" laneChangedTo="0"/>
    </interval>
</meandata>
