<?xml version="1.0" encoding="UTF-8"?>

<!-- generated on Wed Jun  1 10:58:50 2016 by SUMO Version dev-SVN-r20832
<?xml version="1.0" encoding="UTF-8"?>

<configuration xmlns:xsi="http://www.w3.org/2001/XMLSchema-instance" xsi:noNamespaceSchemaLocation="http://sumo.dlr.de/xsd/sumoConfiguration.xsd">

    <input>
        <net-file value="net.net.xml"/>
        <route-files value="input_routes.rou.xml"/>
        <additional-files value="input_additional.add.xml"/>
    </input>

    <time>
        <begin value="0"/>
        <end value="1000"/>
    </time>

    <report>
        <xml-validation value="never"/>
        <duration-log.disable value="true"/>
        <no-step-log value="true"/>
    </report>

</configuration>
-->

<meandata xmlns:xsi="http://www.w3.org/2001/XMLSchema-instance" xsi:noNamespaceSchemaLocation="http://sumo.dlr.de/xsd/meandata_file.xsd">
    <interval begin="0.00" end="60.00" id="dump_60">
        <edge id="1fi" sampledSeconds="0.00" departed="0" arrived="0" entered="0" left="0" laneChangedFrom="0" laneChangedTo="0"/>
        <edge id="1o" sampledSeconds="0.00" departed="0" arrived="0" entered="0" left="0" laneChangedFrom="0" laneChangedTo="0"/>
        <edge id="1si" sampledSeconds="0.00" departed="0" arrived="0" entered="0" left="0" laneChangedFrom="0" laneChangedTo="0"/>
        <edge id="2fi" sampledSeconds="0.00" departed="0" arrived="0" entered="0" left="0" laneChangedFrom="0" laneChangedTo="0"/>
        <edge id="2o" sampledSeconds="0.00" departed="0" arrived="0" entered="0" left="0" laneChangedFrom="0" laneChangedTo="0"/>
        <edge id="2si" sampledSeconds="0.00" departed="0" arrived="0" entered="0" left="0" laneChangedFrom="0" laneChangedTo="0"/>
        <edge id="3fi" sampledSeconds="0.00" departed="0" arrived="0" entered="0" left="0" laneChangedFrom="0" laneChangedTo="0"/>
        <edge id="3o" sampledSeconds="0.00" departed="0" arrived="0" entered="0" left="0" laneChangedFrom="0" laneChangedTo="0"/>
        <edge id="3si" sampledSeconds="0.00" departed="0" arrived="0" entered="0" left="0" laneChangedFrom="0" laneChangedTo="0"/>
        <edge id="4fi" sampledSeconds="0.00" departed="0" arrived="0" entered="0" left="0" laneChangedFrom="0" laneChangedTo="0"/>
        <edge id="4o" sampledSeconds="0.00" departed="0" arrived="0" entered="0" left="0" laneChangedFrom="0" laneChangedTo="0"/>
        <edge id="4si" sampledSeconds="0.00" departed="0" arrived="0" entered="0" left="0" laneChangedFrom="0" laneChangedTo="0"/>
    </interval>
    <interval begin="0.00" end="60.00" id="dump_60">
        <edge id="1fi">
            <lane id="1fi_0" sampledSeconds="0.00" departed="0" arrived="0" entered="0" left="0" laneChangedFrom="0" laneChangedTo="0"/>
        </edge>
        <edge id="1o">
            <lane id="1o_0" sampledSeconds="0.00" departed="0" arrived="0" entered="0" left="0" laneChangedFrom="0" laneChangedTo="0"/>
        </edge>
        <edge id="1si">
            <lane id="1si_0" sampledSeconds="0.00" departed="0" arrived="0" entered="0" left="0" laneChangedFrom="0" laneChangedTo="0"/>
            <lane id="1si_1" sampledSeconds="0.00" departed="0" arrived="0" entered="0" left="0" laneChangedFrom="0" laneChangedTo="0"/>
            <lane id="1si_2" sampledSeconds="0.00" departed="0" arrived="0" entered="0" left="0" laneChangedFrom="0" laneChangedTo="0"/>
        </edge>
        <edge id="2fi">
            <lane id="2fi_0" sampledSeconds="0.00" departed="0" arrived="0" entered="0" left="0" laneChangedFrom="0" laneChangedTo="0"/>
        </edge>
        <edge id="2o">
            <lane id="2o_0" sampledSeconds="0.00" departed="0" arrived="0" entered="0" left="0" laneChangedFrom="0" laneChangedTo="0"/>
        </edge>
        <edge id="2si">
            <lane id="2si_0" sampledSeconds="0.00" departed="0" arrived="0" entered="0" left="0" laneChangedFrom="0" laneChangedTo="0"/>
            <lane id="2si_1" sampledSeconds="0.00" departed="0" arrived="0" entered="0" left="0" laneChangedFrom="0" laneChangedTo="0"/>
            <lane id="2si_2" sampledSeconds="0.00" departed="0" arrived="0" entered="0" left="0" laneChangedFrom="0" laneChangedTo="0"/>
        </edge>
        <edge id="3fi">
            <lane id="3fi_0" sampledSeconds="0.00" departed="0" arrived="0" entered="0" left="0" laneChangedFrom="0" laneChangedTo="0"/>
        </edge>
        <edge id="3o">
            <lane id="3o_0" sampledSeconds="0.00" departed="0" arrived="0" entered="0" left="0" laneChangedFrom="0" laneChangedTo="0"/>
        </edge>
        <edge id="3si">
            <lane id="3si_0" sampledSeconds="0.00" departed="0" arrived="0" entered="0" left="0" laneChangedFrom="0" laneChangedTo="0"/>
            <lane id="3si_1" sampledSeconds="0.00" departed="0" arrived="0" entered="0" left="0" laneChangedFrom="0" laneChangedTo="0"/>
            <lane id="3si_2" sampledSeconds="0.00" departed="0" arrived="0" entered="0" left="0" laneChangedFrom="0" laneChangedTo="0"/>
        </edge>
        <edge id="4fi">
            <lane id="4fi_0" sampledSeconds="0.00" departed="0" arrived="0" entered="0" left="0" laneChangedFrom="0" laneChangedTo="0"/>
        </edge>
        <edge id="4o">
            <lane id="4o_0" sampledSeconds="0.00" departed="0" arrived="0" entered="0" left="0" laneChangedFrom="0" laneChangedTo="0"/>
        </edge>
        <edge id="4si">
            <lane id="4si_0" sampledSeconds="0.00" departed="0" arrived="0" entered="0" left="0" laneChangedFrom="0" laneChangedTo="0"/>
            <lane id="4si_1" sampledSeconds="0.00" departed="0" arrived="0" entered="0" left="0" laneChangedFrom="0" laneChangedTo="0"/>
            <lane id="4si_2" sampledSeconds="0.00" departed="0" arrived="0" entered="0" left="0" laneChangedFrom="0" laneChangedTo="0"/>
        </edge>
    </interval>
    <interval begin="60.00" end="120.00" id="dump_60">
        <edge id="1fi" sampledSeconds="28.00" traveltime="28.51" density="1.88" occupancy="0.94" waitingTime="0.00" speed="8.71" departed="2" arrived="0" entered="0" left="0" laneChangedFrom="0" laneChangedTo="0"/>
        <edge id="1o" sampledSeconds="0.00" departed="0" arrived="0" entered="0" left="0" laneChangedFrom="0" laneChangedTo="0"/>
        <edge id="1si" sampledSeconds="0.00" departed="0" arrived="0" entered="0" left="0" laneChangedFrom="0" laneChangedTo="0"/>
        <edge id="2fi" sampledSeconds="28.00" traveltime="28.32" density="1.88" occupancy="0.94" waitingTime="0.00" speed="8.77" departed="2" arrived="0" entered="0" left="0" laneChangedFrom="0" laneChangedTo="0"/>
        <edge id="2o" sampledSeconds="0.00" departed="0" arrived="0" entered="0" left="0" laneChangedFrom="0" laneChangedTo="0"/>
        <edge id="2si" sampledSeconds="0.00" departed="0" arrived="0" entered="0" left="0" laneChangedFrom="0" laneChangedTo="0"/>
        <edge id="3fi" sampledSeconds="50.00" traveltime="28.20" density="3.35" occupancy="1.68" waitingTime="0.00" speed="8.81" departed="4" arrived="0" entered="0" left="0" laneChangedFrom="0" laneChangedTo="0"/>
        <edge id="3o" sampledSeconds="0.00" departed="0" arrived="0" entered="0" left="0" laneChangedFrom="0" laneChangedTo="0"/>
        <edge id="3si" sampledSeconds="0.00" departed="0" arrived="0" entered="0" left="0" laneChangedFrom="0" laneChangedTo="0"/>
        <edge id="4fi" sampledSeconds="0.00" departed="0" arrived="0" entered="0" left="0" laneChangedFrom="0" laneChangedTo="0"/>
        <edge id="4o" sampledSeconds="0.00" departed="0" arrived="0" entered="0" left="0" laneChangedFrom="0" laneChangedTo="0"/>
        <edge id="4si" sampledSeconds="0.00" departed="0" arrived="0" entered="0" left="0" laneChangedFrom="0" laneChangedTo="0"/>
    </interval>
    <interval begin="60.00" end="120.00" id="dump_60">
        <edge id="1fi">
            <lane id="1fi_0" sampledSeconds="28.00" traveltime="28.51" density="1.88" occupancy="0.94" waitingTime="0.00" speed="8.71" departed="2" arrived="0" entered="0" left="0" laneChangedFrom="0" laneChangedTo="0"/>
        </edge>
        <edge id="1o">
            <lane id="1o_0" sampledSeconds="0.00" departed="0" arrived="0" entered="0" left="0" laneChangedFrom="0" laneChangedTo="0"/>
        </edge>
        <edge id="1si">
            <lane id="1si_0" sampledSeconds="0.00" departed="0" arrived="0" entered="0" left="0" laneChangedFrom="0" laneChangedTo="0"/>
            <lane id="1si_1" sampledSeconds="0.00" departed="0" arrived="0" entered="0" left="0" laneChangedFrom="0" laneChangedTo="0"/>
            <lane id="1si_2" sampledSeconds="0.00" departed="0" arrived="0" entered="0" left="0" laneChangedFrom="0" laneChangedTo="0"/>
        </edge>
        <edge id="2fi">
            <lane id="2fi_0" sampledSeconds="28.00" traveltime="28.32" density="1.88" occupancy="0.94" waitingTime="0.00" speed="8.77" departed="2" arrived="0" entered="0" left="0" laneChangedFrom="0" laneChangedTo="0"/>
        </edge>
        <edge id="2o">
            <lane id="2o_0" sampledSeconds="0.00" departed="0" arrived="0" entered="0" left="0" laneChangedFrom="0" laneChangedTo="0"/>
        </edge>
        <edge id="2si">
            <lane id="2si_0" sampledSeconds="0.00" departed="0" arrived="0" entered="0" left="0" laneChangedFrom="0" laneChangedTo="0"/>
            <lane id="2si_1" sampledSeconds="0.00" departed="0" arrived="0" entered="0" left="0" laneChangedFrom="0" laneChangedTo="0"/>
            <lane id="2si_2" sampledSeconds="0.00" departed="0" arrived="0" entered="0" left="0" laneChangedFrom="0" laneChangedTo="0"/>
        </edge>
        <edge id="3fi">
            <lane id="3fi_0" sampledSeconds="50.00" traveltime="28.20" density="3.35" occupancy="1.68" waitingTime="0.00" speed="8.81" departed="4" arrived="0" entered="0" left="0" laneChangedFrom="0" laneChangedTo="0"/>
        </edge>
        <edge id="3o">
            <lane id="3o_0" sampledSeconds="0.00" departed="0" arrived="0" entered="0" left="0" laneChangedFrom="0" laneChangedTo="0"/>
        </edge>
        <edge id="3si">
            <lane id="3si_0" sampledSeconds="0.00" departed="0" arrived="0" entered="0" left="0" laneChangedFrom="0" laneChangedTo="0"/>
            <lane id="3si_1" sampledSeconds="0.00" departed="0" arrived="0" entered="0" left="0" laneChangedFrom="0" laneChangedTo="0"/>
            <lane id="3si_2" sampledSeconds="0.00" departed="0" arrived="0" entered="0" left="0" laneChangedFrom="0" laneChangedTo="0"/>
        </edge>
        <edge id="4fi">
            <lane id="4fi_0" sampledSeconds="0.00" departed="0" arrived="0" entered="0" left="0" laneChangedFrom="0" laneChangedTo="0"/>
        </edge>
        <edge id="4o">
            <lane id="4o_0" sampledSeconds="0.00" departed="0" arrived="0" entered="0" left="0" laneChangedFrom="0" laneChangedTo="0"/>
        </edge>
        <edge id="4si">
            <lane id="4si_0" sampledSeconds="0.00" departed="0" arrived="0" entered="0" left="0" laneChangedFrom="0" laneChangedTo="0"/>
            <lane id="4si_1" sampledSeconds="0.00" departed="0" arrived="0" entered="0" left="0" laneChangedFrom="0" laneChangedTo="0"/>
            <lane id="4si_2" sampledSeconds="0.00" departed="0" arrived="0" entered="0" left="0" laneChangedFrom="0" laneChangedTo="0"/>
        </edge>
    </interval>
    <interval begin="900.00" end="960.00" id="dump_60">
        <edge id="1fi" sampledSeconds="563.94" traveltime="24.61" density="37.82" occupancy="18.91" waitingTime="0.00" speed="10.10" departed="7" arrived="7" entered="16" left="16" laneChangedFrom="0" laneChangedTo="0"/>
        <edge id="1o" sampledSeconds="763.96" traveltime="47.22" density="26.06" occupancy="13.03" waitingTime="0.00" speed="10.35" departed="0" arrived="0" entered="19" left="16" laneChangedFrom="0" laneChangedTo="0"/>
        <edge id="1si" sampledSeconds="2381.73" traveltime="129.50" density="167.39" occupancy="27.90" waitingTime="1506.00" speed="1.83" departed="0" arrived="0" entered="16" left="14" laneChangedFrom="0" laneChangedTo="0"/>
        <edge id="2fi" sampledSeconds="560.36" traveltime="24.62" density="37.58" occupancy="18.79" waitingTime="0.00" speed="10.09" departed="7" arrived="10" entered="14" left="14" laneChangedFrom="0" laneChangedTo="0"/>
        <edge id="2o" sampledSeconds="557.63" traveltime="47.00" density="19.02" occupancy="9.51" waitingTime="0.00" speed="10.40" departed="0" arrived="0" entered="15" left="14" laneChangedFrom="0" laneChangedTo="0"/>
        <edge id="2si" sampledSeconds="905.10" traveltime="61.57" density="63.61" occupancy="10.60" waitingTime="493.00" speed="3.85" departed="0" arrived="0" entered="14" left="13" laneChangedFrom="0" laneChangedTo="0"/>
        <edge id="3fi" sampledSeconds="557.34" traveltime="24.43" density="37.38" occupancy="18.69" waitingTime="0.00" speed="10.17" departed="5" arrived="7" entered="17" left="14" laneChangedFrom="0" laneChangedTo="0"/>
        <edge id="3o" sampledSeconds="670.61" traveltime="46.92" density="22.87" occupancy="11.44" waitingTime="0.00" speed="10.42" departed="0" arrived="0" entered="13" left="17" laneChangedFrom="0" laneChangedTo="0"/>
        <edge id="3si" sampledSeconds="456.17" traveltime="36.12" density="32.06" occupancy="5.34" waitingTime="143.00" speed="6.57" departed="0" arrived="0" entered="14" left="19" laneChangedFrom="0" laneChangedTo="0"/>
        <edge id="4fi" sampledSeconds="265.10" traveltime="23.79" density="17.78" occupancy="8.89" waitingTime="0.00" speed="10.45" departed="0" arrived="0" entered="15" left="8" laneChangedFrom="0" laneChangedTo="0"/>
        <edge id="4o" sampledSeconds="667.84" traveltime="47.01" density="22.78" occupancy="11.39" waitingTime="0.00" speed="10.40" departed="0" arrived="0" entered="13" left="15" laneChangedFrom="0" laneChangedTo="0"/>
        <edge id="4si" sampledSeconds="516.75" traveltime="46.04" density="36.32" occupancy="6.05" waitingTime="211.00" speed="5.15" departed="0" arrived="0" entered="8" left="18" laneChangedFrom="0" laneChangedTo="0"/>
    </interval>
    <interval begin="960.00" end="1000.00" id="dump_60">
        <edge id="1fi" sampledSeconds="608.26" traveltime="46.02" density="61.19" occupancy="30.60" waitingTime="63.00" speed="5.40" departed="6" arrived="0" entered="10" left="5" laneChangedFrom="0" laneChangedTo="0"/>
        <edge id="1o" sampledSeconds="370.44" traveltime="47.27" density="18.95" occupancy="9.48" waitingTime="0.00" speed="10.34" departed="0" arrived="0" entered="5" left="10" laneChangedFrom="0" laneChangedTo="0"/>
        <edge id="1si" sampledSeconds="1167.98" traveltime="148.01" density="123.13" occupancy="20.52" waitingTime="323.00" speed="1.60" departed="0" arrived="0" entered="4" left="14" laneChangedFrom="0" laneChangedTo="0"/>
        <edge id="2fi" sampledSeconds="275.73" traveltime="24.63" density="27.74" occupancy="13.87" waitingTime="0.00" speed="10.09" departed="3" arrived="0" entered="9" left="9" laneChangedFrom="0" laneChangedTo="0"/>
        <edge id="2o" sampledSeconds="559.58" traveltime="47.11" density="28.63" occupancy="14.31" waitingTime="0.00" speed="10.37" departed="0" arrived="0" entered="8" left="9" laneChangedFrom="0" laneChangedTo="0"/>
        <edge id="2si" sampledSeconds="450.52" traveltime="48.93" density="47.49" occupancy="7.92" waitingTime="207.00" speed="4.85" departed="0" arrived="0" entered="9" left="5" laneChangedFrom="0" laneChangedTo="0"/>
        <edge id="3fi" sampledSeconds="347.42" traveltime="25.14" density="34.95" occupancy="17.48" waitingTime="0.00" speed="9.88" departed="8" arrived="6" entered="5" left="10" laneChangedFrom="0" laneChangedTo="0"/>
        <edge id="3o" sampledSeconds="509.57" traveltime="47.10" density="26.07" occupancy="13.04" waitingTime="0.00" speed="10.37" departed="0" arrived="0" entered="12" left="5" laneChangedFrom="0" laneChangedTo="0"/>
        <edge id="3si" sampledSeconds="566.81" traveltime="56.60" density="59.75" occupancy="9.96" waitingTime="287.00" speed="4.19" departed="0" arrived="0" entered="10" left="8" laneChangedFrom="0" laneChangedTo="0"/>
        <edge id="4fi" sampledSeconds="211.04" traveltime="23.83" density="21.23" occupancy="10.62" waitingTime="0.00" speed="10.43" departed="0" arrived="0" entered="6" left="12" laneChangedFrom="0" laneChangedTo="0"/>
        <edge id="4o" sampledSeconds="385.73" traveltime="46.84" density="19.73" occupancy="9.87" waitingTime="0.00" speed="10.43" departed="0" arrived="0" entered="10" left="6" laneChangedFrom="0" laneChangedTo="0"/>
        <edge id="4si" sampledSeconds="587.47" traveltime="51.98" density="61.93" occupancy="10.32" waitingTime="311.00" speed="4.56" departed="0" arrived="0" entered="12" left="9" laneChangedFrom="0" laneChangedTo="0"/>
    </interval>
</meandata>
