<?xml version="1.0" encoding="UTF-8"?>

<!-- generated on Wed Jun  1 10:58:53 2016 by SUMO Version dev-SVN-r20832
<?xml version="1.0" encoding="UTF-8"?>

<configuration xmlns:xsi="http://www.w3.org/2001/XMLSchema-instance" xsi:noNamespaceSchemaLocation="http://sumo.dlr.de/xsd/sumoConfiguration.xsd">

    <input>
        <net-file value="net.net.xml"/>
        <route-files value="input_routes.rou.xml"/>
    </input>

    <output>
        <tripinfo-output value="tripinfos.xml"/>
    </output>

    <time>
        <begin value="0"/>
        <end value="1000"/>
    </time>

    <report>
        <xml-validation value="never"/>
        <duration-log.disable value="true"/>
        <no-step-log value="true"/>
    </report>

</configuration>
-->

<tripinfos xmlns:xsi="http://www.w3.org/2001/XMLSchema-instance" xsi:noNamespaceSchemaLocation="http://sumo.dlr.de/xsd/tripinfo_file.xsd">
    <tripinfo id="horizontal.0" depart="100.00" departLane="2fi_0" departPos="5.10" departSpeed="0.00" departDelay="0.00" arrival="311.00" arrivalLane="2fi_0" arrivalPos="248.50" arrivalSpeed="10.15" duration="211.00" routeLength="2257.40" waitSteps="0" timeLoss="15.90" rerouteNo="0" devices="tripinfo_horizontal.0" vType="DEFAULT_VEHTYPE" vaporized=""/>
    <tripinfo id="horizontal.1" depart="110.00" departLane="2fi_0" departPos="5.10" departSpeed="0.00" departDelay="0.00" arrival="321.00" arrivalLane="2fi_0" arrivalPos="248.50" arrivalSpeed="10.21" duration="211.00" routeLength="2257.40" waitSteps="0" timeLoss="16.23" rerouteNo="0" devices="tripinfo_horizontal.1" vType="DEFAULT_VEHTYPE" vaporized=""/>
    <tripinfo id="vertical.0" depart="103.00" departLane="3fi_0" departPos="5.10" departSpeed="0.00" departDelay="3.00" arrival="349.00" arrivalLane="3fi_0" arrivalPos="248.50" arrivalSpeed="10.07" duration="246.00" routeLength="2257.40" waitSteps="29" timeLoss="50.64" rerouteNo="0" devices="tripinfo_vertical.0" vType="DEFAULT_VEHTYPE" vaporized=""/>
    <tripinfo id="vertical.1" depart="113.00" departLane="3fi_0" departPos="5.10" departSpeed="0.00" departDelay="3.00" arrival="351.00" arrivalLane="3fi_0" arrivalPos="248.50" arrivalSpeed="10.22" duration="238.00" routeLength="2257.40" waitSteps="21" timeLoss="42.77" rerouteNo="0" devices="tripinfo_vertical.1" vType="DEFAULT_VEHTYPE" vaporized=""/>
    <tripinfo id="vertical.2" depart="124.00" departLane="3fi_0" departPos="5.10" departSpeed="0.00" departDelay="4.00" arrival="353.00" arrivalLane="3fi_0" arrivalPos="248.50" arrivalSpeed="9.97" duration="229.00" routeLength="2257.40" waitSteps="11" timeLoss="34.01" rerouteNo="0" devices="tripinfo_vertical.2" vType="DEFAULT_VEHTYPE" vaporized=""/>
    <tripinfo id="vertical.3" depart="133.00" departLane="3fi_0" departPos="5.10" departSpeed="0.00" departDelay="3.00" arrival="355.00" arrivalLane="3fi_0" arrivalPos="248.50" arrivalSpeed="10.86" duration="222.00" routeLength="2257.40" waitSteps="3" timeLoss="26.73" rerouteNo="0" devices="tripinfo_vertical.3" vType="DEFAULT_VEHTYPE" vaporized=""/>
    <tripinfo id="vertical.4" depart="143.00" departLane="3fi_0" departPos="5.10" departSpeed="0.00" departDelay="3.00" arrival="356.00" arrivalLane="3fi_0" arrivalPos="248.50" arrivalSpeed="10.78" duration="213.00" routeLength="2257.40" waitSteps="0" timeLoss="18.67" rerouteNo="0" devices="tripinfo_vertical.4" vType="DEFAULT_VEHTYPE" vaporized=""/>
    <tripinfo id="vertical.5" depart="153.00" departLane="3fi_0" departPos="5.10" departSpeed="0.00" departDelay="3.00" arrival="362.00" arrivalLane="3fi_0" arrivalPos="248.50" arrivalSpeed="10.72" duration="209.00" routeLength="2257.40" waitSteps="0" timeLoss="14.69" rerouteNo="0" devices="tripinfo_vertical.5" vType="DEFAULT_VEHTYPE" vaporized=""/>
    <tripinfo id="vertical.6" depart="163.00" departLane="3fi_0" departPos="5.10" departSpeed="0.00" departDelay="3.00" arrival="375.00" arrivalLane="3fi_0" arrivalPos="248.50" arrivalSpeed="10.13" duration="212.00" routeLength="2257.40" waitSteps="0" timeLoss="17.04" rerouteNo="0" devices="tripinfo_vertical.6" vType="DEFAULT_VEHTYPE" vaporized=""/>
    <tripinfo id="horizontal.2" depart="120.00" departLane="2fi_0" departPos="5.10" departSpeed="0.00" departDelay="0.00" arrival="390.00" arrivalLane="2fi_0" arrivalPos="248.50" arrivalSpeed="10.45" duration="270.00" routeLength="2257.40" waitSteps="55" timeLoss="75.27" rerouteNo="0" devices="tripinfo_horizontal.2" vType="DEFAULT_VEHTYPE" vaporized=""/>
    <tripinfo id="horizontal.3" depart="130.00" departLane="2fi_0" departPos="5.10" departSpeed="0.00" departDelay="0.00" arrival="393.00" arrivalLane="2fi_0" arrivalPos="248.50" arrivalSpeed="10.02" duration="263.00" routeLength="2257.40" waitSteps="48" timeLoss="67.52" rerouteNo="0" devices="tripinfo_horizontal.3" vType="DEFAULT_VEHTYPE" vaporized=""/>
    <tripinfo id="horizontal.4" depart="140.00" departLane="2fi_0" departPos="5.10" departSpeed="0.00" departDelay="0.00" arrival="394.00" arrivalLane="2fi_0" arrivalPos="248.50" arrivalSpeed="9.88" duration="254.00" routeLength="2257.40" waitSteps="39" timeLoss="59.59" rerouteNo="0" devices="tripinfo_horizontal.4" vType="DEFAULT_VEHTYPE" vaporized=""/>
    <tripinfo id="horizontal.5" depart="150.00" departLane="2fi_0" departPos="5.10" departSpeed="0.00" departDelay="0.00" arrival="397.00" arrivalLane="2fi_0" arrivalPos="248.50" arrivalSpeed="9.93" duration="247.00" routeLength="2257.40" waitSteps="31" timeLoss="51.68" rerouteNo="0" devices="tripinfo_horizontal.5" vType="DEFAULT_VEHTYPE" vaporized=""/>
    <tripinfo id="horizontal.6" depart="160.00" departLane="2fi_0" departPos="5.10" departSpeed="0.00" departDelay="0.00" arrival="399.00" arrivalLane="2fi_0" arrivalPos="248.50" arrivalSpeed="10.42" duration="239.00" routeLength="2257.40" waitSteps="23" timeLoss="44.49" rerouteNo="0" devices="tripinfo_horizontal.6" vType="DEFAULT_VEHTYPE" vaporized=""/>
    <tripinfo id="horizontal.7" depart="170.00" departLane="2fi_0" departPos="5.10" departSpeed="0.00" departDelay="0.00" arrival="401.00" arrivalLane="2fi_0" arrivalPos="248.50" arrivalSpeed="9.93" duration="231.00" routeLength="2257.40" waitSteps="12" timeLoss="36.43" rerouteNo="0" devices="tripinfo_horizontal.7" vType="DEFAULT_VEHTYPE" vaporized=""/>
    <tripinfo id="horizontal.8" depart="180.00" departLane="2fi_0" departPos="5.10" departSpeed="0.00" departDelay="0.00" arrival="403.00" arrivalLane="2fi_0" arrivalPos="248.50" arrivalSpeed="10.60" duration="223.00" routeLength="2257.40" waitSteps="4" timeLoss="28.50" rerouteNo="0" devices="tripinfo_horizontal.8" vType="DEFAULT_VEHTYPE" vaporized=""/>
    <tripinfo id="horizontal.9" depart="190.00" departLane="2fi_0" departPos="5.10" departSpeed="0.00" departDelay="0.00" arrival="405.00" arrivalLane="2fi_0" arrivalPos="248.50" arrivalSpeed="10.05" duration="215.00" routeLength="2257.40" waitSteps="0" timeLoss="20.39" rerouteNo="0" devices="tripinfo_horizontal.9" vType="DEFAULT_VEHTYPE" vaporized=""/>
    <tripinfo id="horizontal.10" depart="200.00" departLane="2fi_0" departPos="5.10" departSpeed="0.00" departDelay="0.00" arrival="410.00" arrivalLane="2fi_0" arrivalPos="248.50" arrivalSpeed="10.70" duration="210.00" routeLength="2257.40" waitSteps="0" timeLoss="15.39" rerouteNo="0" devices="tripinfo_horizontal.10" vType="DEFAULT_VEHTYPE" vaporized=""/>
    <tripinfo id="horizontal.11" depart="210.00" departLane="2fi_0" departPos="5.10" departSpeed="0.00" departDelay="0.00" arrival="422.00" arrivalLane="2fi_0" arrivalPos="248.50" arrivalSpeed="10.37" duration="212.00" routeLength="2257.40" waitSteps="0" timeLoss="16.76" rerouteNo="0" devices="tripinfo_horizontal.11" vType="DEFAULT_VEHTYPE" vaporized=""/>
    <tripinfo id="vertical.7" depart="173.00" departLane="3fi_0" departPos="5.10" departSpeed="0.00" departDelay="3.00" arrival="436.00" arrivalLane="3fi_0" arrivalPos="248.50" arrivalSpeed="10.81" duration="263.00" routeLength="2257.40" waitSteps="49" timeLoss="68.23" rerouteNo="0" devices="tripinfo_vertical.7" vType="DEFAULT_VEHTYPE" vaporized=""/>
    <tripinfo id="vertical.8" depart="183.00" departLane="3fi_0" departPos="5.10" departSpeed="0.00" departDelay="3.00" arrival="439.00" arrivalLane="3fi_0" arrivalPos="248.50" arrivalSpeed="10.07" duration="256.00" routeLength="2257.40" waitSteps="41" timeLoss="61.41" rerouteNo="0" devices="tripinfo_vertical.8" vType="DEFAULT_VEHTYPE" vaporized=""/>
    <tripinfo id="vertical.9" depart="194.00" departLane="3fi_0" departPos="5.10" departSpeed="0.00" departDelay="4.00" arrival="441.00" arrivalLane="3fi_0" arrivalPos="248.50" arrivalSpeed="10.79" duration="247.00" routeLength="2257.40" waitSteps="32" timeLoss="52.69" rerouteNo="0" devices="tripinfo_vertical.9" vType="DEFAULT_VEHTYPE" vaporized=""/>
    <tripinfo id="vertical.10" depart="203.00" departLane="3fi_0" departPos="5.10" departSpeed="0.00" departDelay="3.00" arrival="444.00" arrivalLane="3fi_0" arrivalPos="248.50" arrivalSpeed="11.05" duration="241.00" routeLength="2257.40" waitSteps="24" timeLoss="45.87" rerouteNo="0" devices="tripinfo_vertical.10" vType="DEFAULT_VEHTYPE" vaporized=""/>
    <tripinfo id="vertical.11" depart="213.00" departLane="3fi_0" departPos="5.10" departSpeed="0.00" departDelay="3.00" arrival="446.00" arrivalLane="3fi_0" arrivalPos="248.50" arrivalSpeed="10.39" duration="233.00" routeLength="2257.40" waitSteps="15" timeLoss="37.92" rerouteNo="0" devices="tripinfo_vertical.11" vType="DEFAULT_VEHTYPE" vaporized=""/>
    <tripinfo id="vertical.12" depart="223.00" departLane="3fi_0" departPos="5.10" departSpeed="0.00" departDelay="3.00" arrival="448.00" arrivalLane="3fi_0" arrivalPos="248.50" arrivalSpeed="10.01" duration="225.00" routeLength="2257.40" waitSteps="7" timeLoss="30.07" rerouteNo="0" devices="tripinfo_vertical.12" vType="DEFAULT_VEHTYPE" vaporized=""/>
    <tripinfo id="vertical.13" depart="233.00" departLane="3fi_0" departPos="5.10" departSpeed="0.00" departDelay="3.00" arrival="450.00" arrivalLane="3fi_0" arrivalPos="248.50" arrivalSpeed="9.96" duration="217.00" routeLength="2257.40" waitSteps="0" timeLoss="22.08" rerouteNo="0" devices="tripinfo_vertical.13" vType="DEFAULT_VEHTYPE" vaporized=""/>
    <tripinfo id="vertical.14" depart="243.00" departLane="3fi_0" departPos="5.10" departSpeed="0.00" departDelay="3.00" arrival="452.00" arrivalLane="3fi_0" arrivalPos="248.50" arrivalSpeed="10.30" duration="209.00" routeLength="2257.40" waitSteps="0" timeLoss="14.72" rerouteNo="0" devices="tripinfo_vertical.14" vType="DEFAULT_VEHTYPE" vaporized=""/>
    <tripinfo id="vertical.15" depart="253.00" departLane="3fi_0" departPos="5.10" departSpeed="0.00" departDelay="3.00" arrival="463.00" arrivalLane="3fi_0" arrivalPos="248.50" arrivalSpeed="10.05" duration="210.00" routeLength="2257.40" waitSteps="0" timeLoss="14.99" rerouteNo="0" devices="tripinfo_vertical.15" vType="DEFAULT_VEHTYPE" vaporized=""/>
    <tripinfo id="horizontal.12" depart="220.00" departLane="2fi_0" departPos="5.10" departSpeed="0.00" departDelay="0.00" arrival="483.00" arrivalLane="2fi_0" arrivalPos="248.50" arrivalSpeed="10.16" duration="263.00" routeLength="2257.40" waitSteps="48" timeLoss="68.44" rerouteNo="0" devices="tripinfo_horizontal.12" vType="DEFAULT_VEHTYPE" vaporized=""/>
    <tripinfo id="horizontal.13" depart="240.00" departLane="2fi_0" departPos="5.10" departSpeed="0.00" departDelay="10.00" arrival="485.00" arrivalLane="2fi_0" arrivalPos="248.50" arrivalSpeed="10.64" duration="245.00" routeLength="2257.40" waitSteps="30" timeLoss="50.39" rerouteNo="0" devices="tripinfo_horizontal.13" vType="DEFAULT_VEHTYPE" vaporized=""/>
    <tripinfo id="horizontal.14" depart="245.00" departLane="2fi_0" departPos="5.10" departSpeed="0.00" departDelay="5.00" arrival="487.00" arrivalLane="2fi_0" arrivalPos="248.50" arrivalSpeed="10.06" duration="242.00" routeLength="2257.40" waitSteps="26" timeLoss="47.48" rerouteNo="0" devices="tripinfo_horizontal.14" vType="DEFAULT_VEHTYPE" vaporized=""/>
    <tripinfo id="horizontal.15" depart="250.00" departLane="2fi_0" departPos="5.10" departSpeed="0.00" departDelay="0.00" arrival="489.00" arrivalLane="2fi_0" arrivalPos="248.50" arrivalSpeed="10.08" duration="239.00" routeLength="2257.40" waitSteps="23" timeLoss="44.46" rerouteNo="0" devices="tripinfo_horizontal.15" vType="DEFAULT_VEHTYPE" vaporized=""/>
    <tripinfo id="horizontal.16" depart="260.00" departLane="2fi_0" departPos="5.10" departSpeed="0.00" departDelay="0.00" arrival="491.00" arrivalLane="2fi_0" arrivalPos="248.50" arrivalSpeed="10.59" duration="231.00" routeLength="2257.40" waitSteps="13" timeLoss="36.38" rerouteNo="0" devices="tripinfo_horizontal.16" vType="DEFAULT_VEHTYPE" vaporized=""/>
    <tripinfo id="horizontal.17" depart="270.00" departLane="2fi_0" departPos="5.10" departSpeed="0.00" departDelay="0.00" arrival="493.00" arrivalLane="2fi_0" arrivalPos="248.50" arrivalSpeed="10.78" duration="223.00" routeLength="2257.40" waitSteps="4" timeLoss="28.65" rerouteNo="0" devices="tripinfo_horizontal.17" vType="DEFAULT_VEHTYPE" vaporized=""/>
    <tripinfo id="horizontal.18" depart="280.00" departLane="2fi_0" departPos="5.10" departSpeed="0.00" departDelay="0.00" arrival="495.00" arrivalLane="2fi_0" arrivalPos="248.50" arrivalSpeed="9.81" duration="215.00" routeLength="2257.40" waitSteps="0" timeLoss="20.53" rerouteNo="0" devices="tripinfo_horizontal.18" vType="DEFAULT_VEHTYPE" vaporized=""/>
    <tripinfo id="horizontal.19" depart="290.00" departLane="2fi_0" departPos="5.10" departSpeed="0.00" departDelay="0.00" arrival="501.00" arrivalLane="2fi_0" arrivalPos="248.50" arrivalSpeed="9.81" duration="211.00" routeLength="2257.40" waitSteps="0" timeLoss="15.68" rerouteNo="0" devices="tripinfo_horizontal.19" vType="DEFAULT_VEHTYPE" vaporized=""/>
    <tripinfo id="horizontal.20" depart="300.00" departLane="2fi_0" departPos="5.10" departSpeed="0.00" departDelay="0.00" arrival="512.00" arrivalLane="2fi_0" arrivalPos="248.50" arrivalSpeed="10.41" duration="212.00" routeLength="2257.40" waitSteps="0" timeLoss="17.11" rerouteNo="0" devices="tripinfo_horizontal.20" vType="DEFAULT_VEHTYPE" vaporized=""/>
    <tripinfo id="vertical.16" depart="263.00" departLane="3fi_0" departPos="5.10" departSpeed="0.00" departDelay="3.00" arrival="528.00" arrivalLane="3fi_0" arrivalPos="248.50" arrivalSpeed="10.75" duration="265.00" routeLength="2257.40" waitSteps="50" timeLoss="69.81" rerouteNo="0" devices="tripinfo_vertical.16" vType="DEFAULT_VEHTYPE" vaporized=""/>
    <tripinfo id="vertical.17" depart="273.00" departLane="3fi_0" departPos="5.10" departSpeed="0.00" departDelay="3.00" arrival="530.00" arrivalLane="3fi_0" arrivalPos="248.50" arrivalSpeed="11.09" duration="257.00" routeLength="2257.40" waitSteps="41" timeLoss="62.15" rerouteNo="0" devices="tripinfo_vertical.17" vType="DEFAULT_VEHTYPE" vaporized=""/>
    <tripinfo id="vertical.18" depart="283.00" departLane="3fi_0" departPos="5.10" departSpeed="0.00" departDelay="3.00" arrival="532.00" arrivalLane="3fi_0" arrivalPos="248.50" arrivalSpeed="9.94" duration="249.00" routeLength="2257.40" waitSteps="32" timeLoss="54.09" rerouteNo="0" devices="tripinfo_vertical.18" vType="DEFAULT_VEHTYPE" vaporized=""/>
    <tripinfo id="vertical.19" depart="294.00" departLane="3fi_0" departPos="5.10" departSpeed="0.00" departDelay="4.00" arrival="534.00" arrivalLane="3fi_0" arrivalPos="248.50" arrivalSpeed="9.81" duration="240.00" routeLength="2257.40" waitSteps="22" timeLoss="45.04" rerouteNo="0" devices="tripinfo_vertical.19" vType="DEFAULT_VEHTYPE" vaporized=""/>
    <tripinfo id="vertical.20" depart="303.00" departLane="3fi_0" departPos="5.10" departSpeed="0.00" departDelay="3.00" arrival="536.00" arrivalLane="3fi_0" arrivalPos="248.50" arrivalSpeed="10.32" duration="233.00" routeLength="2257.40" waitSteps="17" timeLoss="38.25" rerouteNo="0" devices="tripinfo_vertical.20" vType="DEFAULT_VEHTYPE" vaporized=""/>
    <tripinfo id="vertical.21" depart="313.00" departLane="3fi_0" departPos="5.10" departSpeed="0.00" departDelay="3.00" arrival="539.00" arrivalLane="3fi_0" arrivalPos="248.50" arrivalSpeed="11.09" duration="226.00" routeLength="2257.40" waitSteps="8" timeLoss="30.89" rerouteNo="0" devices="tripinfo_vertical.21" vType="DEFAULT_VEHTYPE" vaporized=""/>
    <tripinfo id="vertical.22" depart="334.00" departLane="3fi_0" departPos="5.10" departSpeed="0.00" departDelay="14.00" arrival="545.00" arrivalLane="3fi_0" arrivalPos="248.50" arrivalSpeed="10.94" duration="211.00" routeLength="2257.40" waitSteps="0" timeLoss="15.78" rerouteNo="0" devices="tripinfo_vertical.22" vType="DEFAULT_VEHTYPE" vaporized=""/>
    <tripinfo id="vertical.23" depart="343.00" departLane="3fi_0" departPos="5.10" departSpeed="0.00" departDelay="13.00" arrival="553.00" arrivalLane="3fi_0" arrivalPos="248.50" arrivalSpeed="9.83" duration="210.00" routeLength="2257.40" waitSteps="0" timeLoss="15.45" rerouteNo="0" devices="tripinfo_vertical.23" vType="DEFAULT_VEHTYPE" vaporized=""/>
    <tripinfo id="horizontal.21" depart="310.00" departLane="2fi_0" departPos="5.10" departSpeed="0.00" departDelay="0.00" arrival="574.00" arrivalLane="2fi_0" arrivalPos="248.50" arrivalSpeed="10.55" duration="264.00" routeLength="2257.40" waitSteps="48" timeLoss="69.41" rerouteNo="0" devices="tripinfo_horizontal.21" vType="DEFAULT_VEHTYPE" vaporized=""/>
    <tripinfo id="horizontal.22" depart="336.00" departLane="2fi_0" departPos="5.10" departSpeed="0.00" departDelay="16.00" arrival="576.00" arrivalLane="2fi_0" arrivalPos="248.50" arrivalSpeed="10.20" duration="240.00" routeLength="2257.40" waitSteps="22" timeLoss="45.60" rerouteNo="0" devices="tripinfo_horizontal.22" vType="DEFAULT_VEHTYPE" vaporized=""/>
    <tripinfo id="horizontal.23" depart="345.00" departLane="2fi_0" departPos="5.10" departSpeed="0.00" departDelay="15.00" arrival="579.00" arrivalLane="2fi_0" arrivalPos="248.50" arrivalSpeed="9.99" duration="234.00" routeLength="2257.40" waitSteps="15" timeLoss="38.78" rerouteNo="0" devices="tripinfo_horizontal.23" vType="DEFAULT_VEHTYPE" vaporized=""/>
    <tripinfo id="horizontal.24" depart="348.00" departLane="2fi_0" departPos="5.10" departSpeed="0.00" departDelay="8.00" arrival="581.00" arrivalLane="2fi_0" arrivalPos="248.50" arrivalSpeed="10.57" duration="233.00" routeLength="2257.40" waitSteps="14" timeLoss="37.66" rerouteNo="0" devices="tripinfo_horizontal.24" vType="DEFAULT_VEHTYPE" vaporized=""/>
    <tripinfo id="horizontal.25" depart="358.00" departLane="2fi_0" departPos="5.10" departSpeed="0.00" departDelay="8.00" arrival="582.00" arrivalLane="2fi_0" arrivalPos="248.50" arrivalSpeed="10.51" duration="224.00" routeLength="2257.40" waitSteps="6" timeLoss="29.56" rerouteNo="0" devices="tripinfo_horizontal.25" vType="DEFAULT_VEHTYPE" vaporized=""/>
    <tripinfo id="horizontal.26" depart="361.00" departLane="2fi_0" departPos="5.10" departSpeed="0.00" departDelay="1.00" arrival="585.00" arrivalLane="2fi_0" arrivalPos="248.50" arrivalSpeed="9.98" duration="224.00" routeLength="2257.40" waitSteps="4" timeLoss="28.80" rerouteNo="0" devices="tripinfo_horizontal.26" vType="DEFAULT_VEHTYPE" vaporized=""/>
    <tripinfo id="horizontal.27" depart="382.00" departLane="2fi_0" departPos="5.10" departSpeed="0.00" departDelay="12.00" arrival="593.00" arrivalLane="2fi_0" arrivalPos="248.50" arrivalSpeed="10.51" duration="211.00" routeLength="2257.40" waitSteps="0" timeLoss="16.22" rerouteNo="0" devices="tripinfo_horizontal.27" vType="DEFAULT_VEHTYPE" vaporized=""/>
    <tripinfo id="horizontal.28" depart="388.00" departLane="2fi_0" departPos="5.10" departSpeed="0.00" departDelay="8.00" arrival="598.00" arrivalLane="2fi_0" arrivalPos="248.50" arrivalSpeed="11.07" duration="210.00" routeLength="2257.40" waitSteps="0" timeLoss="15.47" rerouteNo="0" devices="tripinfo_horizontal.28" vType="DEFAULT_VEHTYPE" vaporized=""/>
    <tripinfo id="vertical.24" depart="352.00" departLane="3fi_0" departPos="5.10" departSpeed="0.00" departDelay="12.00" arrival="617.00" arrivalLane="3fi_0" arrivalPos="248.50" arrivalSpeed="10.71" duration="265.00" routeLength="2257.40" waitSteps="51" timeLoss="69.61" rerouteNo="0" devices="tripinfo_vertical.24" vType="DEFAULT_VEHTYPE" vaporized=""/>
    <tripinfo id="vertical.25" depart="358.00" departLane="3fi_0" departPos="5.10" departSpeed="0.00" departDelay="8.00" arrival="619.00" arrivalLane="3fi_0" arrivalPos="248.50" arrivalSpeed="10.37" duration="261.00" routeLength="2257.40" waitSteps="46" timeLoss="66.15" rerouteNo="0" devices="tripinfo_vertical.25" vType="DEFAULT_VEHTYPE" vaporized=""/>
    <tripinfo id="vertical.26" depart="364.00" departLane="3fi_0" departPos="5.10" departSpeed="0.00" departDelay="4.00" arrival="621.00" arrivalLane="3fi_0" arrivalPos="248.50" arrivalSpeed="10.10" duration="257.00" routeLength="2257.40" waitSteps="43" timeLoss="62.54" rerouteNo="0" devices="tripinfo_vertical.26" vType="DEFAULT_VEHTYPE" vaporized=""/>
    <tripinfo id="vertical.27" depart="373.00" departLane="3fi_0" departPos="5.10" departSpeed="0.00" departDelay="3.00" arrival="623.00" arrivalLane="3fi_0" arrivalPos="248.50" arrivalSpeed="11.08" duration="250.00" routeLength="2257.40" waitSteps="34" timeLoss="55.43" rerouteNo="0" devices="tripinfo_vertical.27" vType="DEFAULT_VEHTYPE" vaporized=""/>
    <tripinfo id="vertical.28" depart="383.00" departLane="3fi_0" departPos="5.10" departSpeed="0.00" departDelay="3.00" arrival="625.00" arrivalLane="3fi_0" arrivalPos="248.50" arrivalSpeed="10.72" duration="242.00" routeLength="2257.40" waitSteps="26" timeLoss="47.43" rerouteNo="0" devices="tripinfo_vertical.28" vType="DEFAULT_VEHTYPE" vaporized=""/>
    <tripinfo id="vertical.29" depart="393.00" departLane="3fi_0" departPos="5.10" departSpeed="0.00" departDelay="3.00" arrival="628.00" arrivalLane="3fi_0" arrivalPos="248.50" arrivalSpeed="10.56" duration="235.00" routeLength="2257.40" waitSteps="17" timeLoss="39.70" rerouteNo="0" devices="tripinfo_vertical.29" vType="DEFAULT_VEHTYPE" vaporized=""/>
    <tripinfo id="vertical.30" depart="404.00" departLane="3fi_0" departPos="5.10" departSpeed="0.00" departDelay="4.00" arrival="630.00" arrivalLane="3fi_0" arrivalPos="248.50" arrivalSpeed="9.85" duration="226.00" routeLength="2257.40" waitSteps="7" timeLoss="31.24" rerouteNo="0" devices="tripinfo_vertical.30" vType="DEFAULT_VEHTYPE" vaporized=""/>
    <tripinfo id="always_left.0" depart="100.00" departLane="1fi_0" departPos="5.10" departSpeed="0.00" departDelay="0.00" arrival="633.00" arrivalLane="1fi_0" arrivalPos="248.50" arrivalSpeed="9.92" duration="533.00" routeLength="4211.12" waitSteps="110" timeLoss="166.59" rerouteNo="0" devices="tripinfo_always_left.0" vType="DEFAULT_VEHTYPE" vaporized=""/>
    <tripinfo id="always_left.1" depart="110.00" departLane="1fi_0" departPos="5.10" departSpeed="0.00" departDelay="0.00" arrival="636.00" arrivalLane="1fi_0" arrivalPos="248.50" arrivalSpeed="10.94" duration="526.00" routeLength="4211.12" waitSteps="89" timeLoss="158.95" rerouteNo="0" devices="tripinfo_always_left.1" vType="DEFAULT_VEHTYPE" vaporized=""/>
    <tripinfo id="always_left.2" depart="120.00" departLane="1fi_0" departPos="5.10" departSpeed="0.00" departDelay="0.00" arrival="642.00" arrivalLane="1fi_0" arrivalPos="248.50" arrivalSpeed="11.06" duration="522.00" routeLength="4211.12" waitSteps="71" timeLoss="155.24" rerouteNo="0" devices="tripinfo_always_left.2" vType="DEFAULT_VEHTYPE" vaporized=""/>
    <tripinfo id="vertical.31" depart="433.00" departLane="3fi_0" departPos="5.10" departSpeed="0.00" departDelay="23.00" arrival="644.00" arrivalLane="3fi_0" arrivalPos="248.50" arrivalSpeed="10.32" duration="211.00" routeLength="2257.40" waitSteps="0" timeLoss="16.46" rerouteNo="0" devices="tripinfo_vertical.31" vType="DEFAULT_VEHTYPE" vaporized=""/>
    <tripinfo id="always_left.3" depart="130.00" departLane="1fi_0" departPos="5.10" departSpeed="0.00" departDelay="0.00" arrival="648.00" arrivalLane="1fi_0" arrivalPos="248.50" arrivalSpeed="11.08" duration="518.00" routeLength="4211.12" waitSteps="63" timeLoss="151.44" rerouteNo="0" devices="tripinfo_always_left.3" vType="DEFAULT_VEHTYPE" vaporized=""/>
    <tripinfo id="horizontal.29" depart="391.00" departLane="2fi_0" departPos="5.10" departSpeed="0.00" departDelay="1.00" arrival="660.00" arrivalLane="2fi_0" arrivalPos="248.50" arrivalSpeed="10.11" duration="269.00" routeLength="2257.40" waitSteps="54" timeLoss="74.29" rerouteNo="0" devices="tripinfo_horizontal.29" vType="DEFAULT_VEHTYPE" vaporized=""/>
    <tripinfo id="always_right.0" depart="100.00" departLane="3fi_0" departPos="5.10" departSpeed="0.00" departDelay="0.00" arrival="660.00" arrivalLane="3fi_0" arrivalPos="248.50" arrivalSpeed="11.01" duration="560.00" routeLength="4223.00" waitSteps="154" timeLoss="196.32" rerouteNo="0" devices="tripinfo_always_right.0" vType="DEFAULT_VEHTYPE" vaporized=""/>
    <tripinfo id="horizontal.30" depart="400.00" departLane="2fi_0" departPos="5.10" departSpeed="0.00" departDelay="0.00" arrival="662.00" arrivalLane="2fi_0" arrivalPos="248.50" arrivalSpeed="10.84" duration="262.00" routeLength="2257.40" waitSteps="47" timeLoss="67.24" rerouteNo="0" devices="tripinfo_horizontal.30" vType="DEFAULT_VEHTYPE" vaporized=""/>
    <tripinfo id="always_right.1" depart="110.00" departLane="3fi_0" departPos="5.10" departSpeed="0.00" departDelay="0.00" arrival="662.00" arrivalLane="3fi_0" arrivalPos="248.50" arrivalSpeed="10.83" duration="552.00" routeLength="4223.00" waitSteps="142" timeLoss="188.45" rerouteNo="0" devices="tripinfo_always_right.1" vType="DEFAULT_VEHTYPE" vaporized=""/>
    <tripinfo id="always_right.2" depart="120.00" departLane="3fi_0" departPos="5.10" departSpeed="0.00" departDelay="0.00" arrival="664.00" arrivalLane="3fi_0" arrivalPos="248.50" arrivalSpeed="9.92" duration="544.00" routeLength="4223.00" waitSteps="128" timeLoss="180.88" rerouteNo="0" devices="tripinfo_always_right.2" vType="DEFAULT_VEHTYPE" vaporized=""/>
    <tripinfo id="horizontal.31" depart="424.00" departLane="2fi_0" departPos="5.10" departSpeed="0.00" departDelay="14.00" arrival="665.00" arrivalLane="2fi_0" arrivalPos="248.50" arrivalSpeed="10.63" duration="241.00" routeLength="2257.40" waitSteps="25" timeLoss="45.65" rerouteNo="0" devices="tripinfo_horizontal.31" vType="DEFAULT_VEHTYPE" vaporized=""/>
    <tripinfo id="always_right.3" depart="130.00" departLane="3fi_0" departPos="5.10" departSpeed="0.00" departDelay="0.00" arrival="666.00" arrivalLane="3fi_0" arrivalPos="248.50" arrivalSpeed="10.42" duration="536.00" routeLength="4223.00" waitSteps="118" timeLoss="173.06" rerouteNo="0" devices="tripinfo_always_right.3" vType="DEFAULT_VEHTYPE" vaporized=""/>
    <tripinfo id="horizontal.32" depart="427.00" departLane="2fi_0" departPos="5.10" departSpeed="0.00" departDelay="7.00" arrival="667.00" arrivalLane="2fi_0" arrivalPos="248.50" arrivalSpeed="10.12" duration="240.00" routeLength="2257.40" waitSteps="24" timeLoss="45.11" rerouteNo="0" devices="tripinfo_horizontal.32" vType="DEFAULT_VEHTYPE" vaporized=""/>
    <tripinfo id="always_right.4" depart="140.00" departLane="3fi_0" departPos="5.10" departSpeed="0.00" departDelay="0.00" arrival="668.00" arrivalLane="3fi_0" arrivalPos="248.50" arrivalSpeed="10.50" duration="528.00" routeLength="4223.00" waitSteps="109" timeLoss="165.03" rerouteNo="0" devices="tripinfo_always_right.4" vType="DEFAULT_VEHTYPE" vaporized=""/>
    <tripinfo id="horizontal.33" depart="430.00" departLane="2fi_0" departPos="5.10" departSpeed="0.00" departDelay="0.00" arrival="669.00" arrivalLane="2fi_0" arrivalPos="248.50" arrivalSpeed="10.83" duration="239.00" routeLength="2257.40" waitSteps="22" timeLoss="43.76" rerouteNo="0" devices="tripinfo_horizontal.33" vType="DEFAULT_VEHTYPE" vaporized=""/>
    <tripinfo id="always_right.5" depart="150.00" departLane="3fi_0" departPos="5.10" departSpeed="0.00" departDelay="0.00" arrival="670.00" arrivalLane="3fi_0" arrivalPos="248.50" arrivalSpeed="10.25" duration="520.00" routeLength="4223.00" waitSteps="102" timeLoss="156.75" rerouteNo="0" devices="tripinfo_always_right.5" vType="DEFAULT_VEHTYPE" vaporized=""/>
    <tripinfo id="horizontal.34" depart="452.00" departLane="2fi_0" departPos="5.10" departSpeed="0.00" departDelay="12.00" arrival="671.00" arrivalLane="2fi_0" arrivalPos="248.50" arrivalSpeed="10.80" duration="219.00" routeLength="2257.40" waitSteps="2" timeLoss="23.69" rerouteNo="0" devices="tripinfo_horizontal.34" vType="DEFAULT_VEHTYPE" vaporized=""/>
    <tripinfo id="always_right.6" depart="160.00" departLane="3fi_0" departPos="5.10" departSpeed="0.00" departDelay="0.00" arrival="672.00" arrivalLane="3fi_0" arrivalPos="248.50" arrivalSpeed="10.37" duration="512.00" routeLength="4223.00" waitSteps="91" timeLoss="148.83" rerouteNo="0" devices="tripinfo_always_right.6" vType="DEFAULT_VEHTYPE" vaporized=""/>
    <tripinfo id="horizontal.35" depart="455.00" departLane="2fi_0" departPos="5.10" departSpeed="0.00" departDelay="5.00" arrival="673.00" arrivalLane="2fi_0" arrivalPos="248.50" arrivalSpeed="9.88" duration="218.00" routeLength="2257.40" waitSteps="0" timeLoss="23.16" rerouteNo="0" devices="tripinfo_horizontal.35" vType="DEFAULT_VEHTYPE" vaporized=""/>
    <tripinfo id="horizontal.36" depart="472.00" departLane="2fi_0" departPos="5.10" departSpeed="0.00" departDelay="12.00" arrival="683.00" arrivalLane="2fi_0" arrivalPos="248.50" arrivalSpeed="10.23" duration="211.00" routeLength="2257.40" waitSteps="0" timeLoss="15.77" rerouteNo="0" devices="tripinfo_horizontal.36" vType="DEFAULT_VEHTYPE" vaporized=""/>
    <tripinfo id="horizontal.37" depart="478.00" departLane="2fi_0" departPos="5.10" departSpeed="0.00" departDelay="8.00" arrival="688.00" arrivalLane="2fi_0" arrivalPos="248.50" arrivalSpeed="10.77" duration="210.00" routeLength="2257.40" waitSteps="0" timeLoss="15.30" rerouteNo="0" devices="tripinfo_horizontal.37" vType="DEFAULT_VEHTYPE" vaporized=""/>