<?xml version="1.0" encoding="UTF-8"?>

<!-- generated on Tue Apr  5 13:44:43 2016 by SUMO Version dev-SVN-r20343
<?xml version="1.0" encoding="UTF-8"?>

<configuration xmlns:xsi="http://www.w3.org/2001/XMLSchema-instance" xsi:noNamespaceSchemaLocation="http://sumo.dlr.de/xsd/sumoConfiguration.xsd">

    <input>
        <net-file value="net.net.xml"/>
        <route-files value="input_routes.rou.xml"/>
    </input>

    <output>
        <tripinfo-output value="tripinfos.xml"/>
    </output>

    <time>
        <begin value="0"/>
        <end value="1000"/>
    </time>

    <report>
        <xml-validation value="never"/>
        <duration-log.disable value="true"/>
        <no-step-log value="true"/>
    </report>

</configuration>
-->

<tripinfos xmlns:xsi="http://www.w3.org/2001/XMLSchema-instance" xsi:noNamespaceSchemaLocation="http://sumo.dlr.de/xsd/tripinfo_file.xsd">
    <tripinfo id="horizontal.0" depart="100.00" departLane="2fi_0" departPos="5.10" departSpeed="0.00" departDelay="0.00" arrival="311.00" arrivalLane="2fi_0" arrivalPos="248.50" arrivalSpeed="10.75" duration="211.00" routeLength="2257.40" waitSteps="0" timeLoss="16.00" rerouteNo="0" devices="tripinfo_horizontal.0" vType="DEFAULT_VEHTYPE" vaporized=""/>
    <tripinfo id="horizontal.1" depart="110.00" departLane="2fi_0" departPos="5.10" departSpeed="0.00" departDelay="0.00" arrival="320.00" arrivalLane="2fi_0" arrivalPos="248.50" arrivalSpeed="10.27" duration="210.00" routeLength="2257.40" waitSteps="0" timeLoss="15.57" rerouteNo="0" devices="tripinfo_horizontal.1" vType="DEFAULT_VEHTYPE" vaporized=""/>
    <tripinfo id="vertical.0" depart="103.00" departLane="3fi_0" departPos="5.10" departSpeed="0.00" departDelay="3.00" arrival="348.00" arrivalLane="3fi_0" arrivalPos="248.50" arrivalSpeed="10.21" duration="245.00" routeLength="2257.40" waitSteps="29" timeLoss="52.01" rerouteNo="0" devices="tripinfo_vertical.0" vType="DEFAULT_VEHTYPE" vaporized=""/>
    <tripinfo id="vertical.1" depart="113.00" departLane="3fi_0" departPos="5.10" departSpeed="0.00" departDelay="3.00" arrival="350.00" arrivalLane="3fi_0" arrivalPos="248.50" arrivalSpeed="10.79" duration="237.00" routeLength="2257.40" waitSteps="21" timeLoss="43.35" rerouteNo="0" devices="tripinfo_vertical.1" vType="DEFAULT_VEHTYPE" vaporized=""/>
    <tripinfo id="vertical.2" depart="124.00" departLane="3fi_0" departPos="5.10" departSpeed="0.00" departDelay="4.00" arrival="352.00" arrivalLane="3fi_0" arrivalPos="248.50" arrivalSpeed="10.93" duration="228.00" routeLength="2257.40" waitSteps="11" timeLoss="34.35" rerouteNo="0" devices="tripinfo_vertical.2" vType="DEFAULT_VEHTYPE" vaporized=""/>
    <tripinfo id="vertical.3" depart="133.00" departLane="3fi_0" departPos="5.10" departSpeed="0.00" departDelay="3.00" arrival="354.00" arrivalLane="3fi_0" arrivalPos="248.50" arrivalSpeed="10.45" duration="221.00" routeLength="2257.40" waitSteps="3" timeLoss="26.78" rerouteNo="0" devices="tripinfo_vertical.3" vType="DEFAULT_VEHTYPE" vaporized=""/>
    <tripinfo id="vertical.4" depart="143.00" departLane="3fi_0" departPos="5.10" departSpeed="0.00" departDelay="3.00" arrival="357.00" arrivalLane="3fi_0" arrivalPos="248.50" arrivalSpeed="11.03" duration="214.00" routeLength="2257.40" waitSteps="0" timeLoss="18.93" rerouteNo="0" devices="tripinfo_vertical.4" vType="DEFAULT_VEHTYPE" vaporized=""/>
    <tripinfo id="vertical.5" depart="153.00" departLane="3fi_0" departPos="5.10" departSpeed="0.00" departDelay="3.00" arrival="363.00" arrivalLane="3fi_0" arrivalPos="248.50" arrivalSpeed="10.32" duration="210.00" routeLength="2257.40" waitSteps="0" timeLoss="15.10" rerouteNo="0" devices="tripinfo_vertical.5" vType="DEFAULT_VEHTYPE" vaporized=""/>
    <tripinfo id="vertical.6" depart="163.00" departLane="3fi_0" departPos="5.10" departSpeed="0.00" departDelay="3.00" arrival="375.00" arrivalLane="3fi_0" arrivalPos="248.50" arrivalSpeed="11.07" duration="212.00" routeLength="2257.40" waitSteps="0" timeLoss="16.89" rerouteNo="0" devices="tripinfo_vertical.6" vType="DEFAULT_VEHTYPE" vaporized=""/>
    <tripinfo id="horizontal.2" depart="120.00" departLane="2fi_0" departPos="5.10" departSpeed="0.00" departDelay="0.00" arrival="391.00" arrivalLane="2fi_0" arrivalPos="248.50" arrivalSpeed="10.26" duration="271.00" routeLength="2257.40" waitSteps="55" timeLoss="77.29" rerouteNo="0" devices="tripinfo_horizontal.2" vType="DEFAULT_VEHTYPE" vaporized=""/>
    <tripinfo id="horizontal.3" depart="130.00" departLane="2fi_0" departPos="5.10" departSpeed="0.00" departDelay="0.00" arrival="393.00" arrivalLane="2fi_0" arrivalPos="248.50" arrivalSpeed="10.03" duration="263.00" routeLength="2257.40" waitSteps="48" timeLoss="69.30" rerouteNo="0" devices="tripinfo_horizontal.3" vType="DEFAULT_VEHTYPE" vaporized=""/>
    <tripinfo id="horizontal.4" depart="140.00" departLane="2fi_0" departPos="5.10" departSpeed="0.00" departDelay="0.00" arrival="395.00" arrivalLane="2fi_0" arrivalPos="248.50" arrivalSpeed="10.07" duration="255.00" routeLength="2257.40" waitSteps="39" timeLoss="61.80" rerouteNo="0" devices="tripinfo_horizontal.4" vType="DEFAULT_VEHTYPE" vaporized=""/>
    <tripinfo id="horizontal.5" depart="150.00" departLane="2fi_0" departPos="5.10" departSpeed="0.00" departDelay="0.00" arrival="397.00" arrivalLane="2fi_0" arrivalPos="248.50" arrivalSpeed="10.98" duration="247.00" routeLength="2257.40" waitSteps="31" timeLoss="53.03" rerouteNo="0" devices="tripinfo_horizontal.5" vType="DEFAULT_VEHTYPE" vaporized=""/>
    <tripinfo id="horizontal.6" depart="160.00" departLane="2fi_0" departPos="5.10" departSpeed="0.00" departDelay="0.00" arrival="400.00" arrivalLane="2fi_0" arrivalPos="248.50" arrivalSpeed="10.33" duration="240.00" routeLength="2257.40" waitSteps="23" timeLoss="45.30" rerouteNo="0" devices="tripinfo_horizontal.6" vType="DEFAULT_VEHTYPE" vaporized=""/>
    <tripinfo id="horizontal.7" depart="170.00" departLane="2fi_0" departPos="5.10" departSpeed="0.00" departDelay="0.00" arrival="401.00" arrivalLane="2fi_0" arrivalPos="248.50" arrivalSpeed="9.86" duration="231.00" routeLength="2257.40" waitSteps="12" timeLoss="38.54" rerouteNo="0" devices="tripinfo_horizontal.7" vType="DEFAULT_VEHTYPE" vaporized=""/>
    <tripinfo id="horizontal.8" depart="180.00" departLane="2fi_0" departPos="5.10" departSpeed="0.00" departDelay="0.00" arrival="403.00" arrivalLane="2fi_0" arrivalPos="248.50" arrivalSpeed="10.14" duration="223.00" routeLength="2257.40" waitSteps="4" timeLoss="29.55" rerouteNo="0" devices="tripinfo_horizontal.8" vType="DEFAULT_VEHTYPE" vaporized=""/>
    <tripinfo id="horizontal.9" depart="190.00" departLane="2fi_0" departPos="5.10" departSpeed="0.00" departDelay="0.00" arrival="405.00" arrivalLane="2fi_0" arrivalPos="248.50" arrivalSpeed="10.00" duration="215.00" routeLength="2257.40" waitSteps="0" timeLoss="20.64" rerouteNo="0" devices="tripinfo_horizontal.9" vType="DEFAULT_VEHTYPE" vaporized=""/>
    <tripinfo id="horizontal.10" depart="200.00" departLane="2fi_0" departPos="5.10" departSpeed="0.00" departDelay="0.00" arrival="412.00" arrivalLane="2fi_0" arrivalPos="248.50" arrivalSpeed="10.52" duration="212.00" routeLength="2257.40" waitSteps="0" timeLoss="16.90" rerouteNo="0" devices="tripinfo_horizontal.10" vType="DEFAULT_VEHTYPE" vaporized=""/>
    <tripinfo id="horizontal.11" depart="210.00" departLane="2fi_0" departPos="5.10" departSpeed="0.00" departDelay="0.00" arrival="422.00" arrivalLane="2fi_0" arrivalPos="248.50" arrivalSpeed="10.80" duration="212.00" routeLength="2257.40" waitSteps="0" timeLoss="16.91" rerouteNo="0" devices="tripinfo_horizontal.11" vType="DEFAULT_VEHTYPE" vaporized=""/>
    <tripinfo id="vertical.7" depart="173.00" departLane="3fi_0" departPos="5.10" departSpeed="0.00" departDelay="3.00" arrival="438.00" arrivalLane="3fi_0" arrivalPos="248.50" arrivalSpeed="10.29" duration="265.00" routeLength="2257.40" waitSteps="49" timeLoss="71.91" rerouteNo="0" devices="tripinfo_vertical.7" vType="DEFAULT_VEHTYPE" vaporized=""/>
    <tripinfo id="vertical.8" depart="183.00" departLane="3fi_0" departPos="5.10" departSpeed="0.00" departDelay="3.00" arrival="441.00" arrivalLane="3fi_0" arrivalPos="248.50" arrivalSpeed="10.28" duration="258.00" routeLength="2257.40" waitSteps="41" timeLoss="63.54" rerouteNo="0" devices="tripinfo_vertical.8" vType="DEFAULT_VEHTYPE" vaporized=""/>
    <tripinfo id="vertical.9" depart="194.00" departLane="3fi_0" departPos="5.10" departSpeed="0.00" departDelay="4.00" arrival="443.00" arrivalLane="3fi_0" arrivalPos="248.50" arrivalSpeed="9.82" duration="249.00" routeLength="2257.40" waitSteps="32" timeLoss="55.06" rerouteNo="0" devices="tripinfo_vertical.9" vType="DEFAULT_VEHTYPE" vaporized=""/>
    <tripinfo id="vertical.10" depart="203.00" departLane="3fi_0" departPos="5.10" departSpeed="0.00" departDelay="3.00" arrival="444.00" arrivalLane="3fi_0" arrivalPos="248.50" arrivalSpeed="10.99" duration="241.00" routeLength="2257.40" waitSteps="24" timeLoss="47.35" rerouteNo="0" devices="tripinfo_vertical.10" vType="DEFAULT_VEHTYPE" vaporized=""/>
    <tripinfo id="vertical.11" depart="213.00" departLane="3fi_0" departPos="5.10" departSpeed="0.00" departDelay="3.00" arrival="446.00" arrivalLane="3fi_0" arrivalPos="248.50" arrivalSpeed="10.33" duration="233.00" routeLength="2257.40" waitSteps="15" timeLoss="39.63" rerouteNo="0" devices="tripinfo_vertical.11" vType="DEFAULT_VEHTYPE" vaporized=""/>
    <tripinfo id="vertical.12" depart="223.00" departLane="3fi_0" departPos="5.10" departSpeed="0.00" departDelay="3.00" arrival="448.00" arrivalLane="3fi_0" arrivalPos="248.50" arrivalSpeed="10.63" duration="225.00" routeLength="2257.40" waitSteps="7" timeLoss="31.68" rerouteNo="0" devices="tripinfo_vertical.12" vType="DEFAULT_VEHTYPE" vaporized=""/>
    <tripinfo id="vertical.13" depart="233.00" departLane="3fi_0" departPos="5.10" departSpeed="0.00" departDelay="3.00" arrival="450.00" arrivalLane="3fi_0" arrivalPos="248.50" arrivalSpeed="10.12" duration="217.00" routeLength="2257.40" waitSteps="0" timeLoss="22.63" rerouteNo="0" devices="tripinfo_vertical.13" vType="DEFAULT_VEHTYPE" vaporized=""/>
    <tripinfo id="vertical.14" depart="243.00" departLane="3fi_0" departPos="5.10" departSpeed="0.00" departDelay="3.00" arrival="452.00" arrivalLane="3fi_0" arrivalPos="248.50" arrivalSpeed="10.93" duration="209.00" routeLength="2257.40" waitSteps="0" timeLoss="14.46" rerouteNo="0" devices="tripinfo_vertical.14" vType="DEFAULT_VEHTYPE" vaporized=""/>
    <tripinfo id="vertical.15" depart="253.00" departLane="3fi_0" departPos="5.10" departSpeed="0.00" departDelay="3.00" arrival="463.00" arrivalLane="3fi_0" arrivalPos="248.50" arrivalSpeed="10.28" duration="210.00" routeLength="2257.40" waitSteps="0" timeLoss="14.78" rerouteNo="0" devices="tripinfo_vertical.15" vType="DEFAULT_VEHTYPE" vaporized=""/>
    <tripinfo id="horizontal.12" depart="220.00" departLane="2fi_0" departPos="5.10" departSpeed="0.00" departDelay="0.00" arrival="484.00" arrivalLane="2fi_0" arrivalPos="248.50" arrivalSpeed="10.39" duration="264.00" routeLength="2257.40" waitSteps="48" timeLoss="70.16" rerouteNo="0" devices="tripinfo_horizontal.12" vType="DEFAULT_VEHTYPE" vaporized=""/>
    <tripinfo id="horizontal.13" depart="240.00" departLane="2fi_0" departPos="5.10" departSpeed="0.00" departDelay="10.00" arrival="486.00" arrivalLane="2fi_0" arrivalPos="248.50" arrivalSpeed="9.92" duration="246.00" routeLength="2257.40" waitSteps="30" timeLoss="52.39" rerouteNo="0" devices="tripinfo_horizontal.13" vType="DEFAULT_VEHTYPE" vaporized=""/>
    <tripinfo id="horizontal.14" depart="245.00" departLane="2fi_0" departPos="5.10" departSpeed="0.00" departDelay="5.00" arrival="488.00" arrivalLane="2fi_0" arrivalPos="248.50" arrivalSpeed="10.99" duration="243.00" routeLength="2257.40" waitSteps="25" timeLoss="48.55" rerouteNo="0" devices="tripinfo_horizontal.14" vType="DEFAULT_VEHTYPE" vaporized=""/>
    <tripinfo id="horizontal.15" depart="250.00" departLane="2fi_0" departPos="5.10" departSpeed="0.00" departDelay="0.00" arrival="490.00" arrivalLane="2fi_0" arrivalPos="248.50" arrivalSpeed="10.99" duration="240.00" routeLength="2257.40" waitSteps="23" timeLoss="46.02" rerouteNo="0" devices="tripinfo_horizontal.15" vType="DEFAULT_VEHTYPE" vaporized=""/>
    <tripinfo id="horizontal.16" depart="260.00" departLane="2fi_0" departPos="5.10" departSpeed="0.00" departDelay="0.00" arrival="492.00" arrivalLane="2fi_0" arrivalPos="248.50" arrivalSpeed="11.06" duration="232.00" routeLength="2257.40" waitSteps="14" timeLoss="38.15" rerouteNo="0" devices="tripinfo_horizontal.16" vType="DEFAULT_VEHTYPE" vaporized=""/>
    <tripinfo id="horizontal.17" depart="270.00" departLane="2fi_0" departPos="5.10" departSpeed="0.00" departDelay="0.00" arrival="494.00" arrivalLane="2fi_0" arrivalPos="248.50" arrivalSpeed="10.46" duration="224.00" routeLength="2257.40" waitSteps="5" timeLoss="29.63" rerouteNo="0" devices="tripinfo_horizontal.17" vType="DEFAULT_VEHTYPE" vaporized=""/>
    <tripinfo id="horizontal.18" depart="280.00" departLane="2fi_0" departPos="5.10" departSpeed="0.00" departDelay="0.00" arrival="495.00" arrivalLane="2fi_0" arrivalPos="248.50" arrivalSpeed="10.79" duration="215.00" routeLength="2257.40" waitSteps="0" timeLoss="20.48" rerouteNo="0" devices="tripinfo_horizontal.18" vType="DEFAULT_VEHTYPE" vaporized=""/>
    <tripinfo id="horizontal.19" depart="290.00" departLane="2fi_0" departPos="5.10" departSpeed="0.00" departDelay="0.00" arrival="502.00" arrivalLane="2fi_0" arrivalPos="248.50" arrivalSpeed="10.38" duration="212.00" routeLength="2257.40" waitSteps="0" timeLoss="17.01" rerouteNo="0" devices="tripinfo_horizontal.19" vType="DEFAULT_VEHTYPE" vaporized=""/>
    <tripinfo id="vertical.16" depart="263.00" departLane="3fi_0" departPos="5.10" departSpeed="0.00" departDelay="3.00" arrival="527.00" arrivalLane="3fi_0" arrivalPos="248.50" arrivalSpeed="10.40" duration="264.00" routeLength="2257.40" waitSteps="49" timeLoss="70.18" rerouteNo="0" devices="tripinfo_vertical.16" vType="DEFAULT_VEHTYPE" vaporized=""/>
    <tripinfo id="vertical.17" depart="273.00" departLane="3fi_0" departPos="5.10" departSpeed="0.00" departDelay="3.00" arrival="530.00" arrivalLane="3fi_0" arrivalPos="248.50" arrivalSpeed="10.23" duration="257.00" routeLength="2257.40" waitSteps="41" timeLoss="63.51" rerouteNo="0" devices="tripinfo_vertical.17" vType="DEFAULT_VEHTYPE" vaporized=""/>
    <tripinfo id="vertical.18" depart="283.00" departLane="3fi_0" departPos="5.10" departSpeed="0.00" departDelay="3.00" arrival="532.00" arrivalLane="3fi_0" arrivalPos="248.50" arrivalSpeed="11.00" duration="249.00" routeLength="2257.40" waitSteps="33" timeLoss="55.76" rerouteNo="0" devices="tripinfo_vertical.18" vType="DEFAULT_VEHTYPE" vaporized=""/>
    <tripinfo id="vertical.19" depart="293.00" departLane="3fi_0" departPos="5.10" departSpeed="0.00" departDelay="3.00" arrival="535.00" arrivalLane="3fi_0" arrivalPos="248.50" arrivalSpeed="10.73" duration="242.00" routeLength="2257.40" waitSteps="24" timeLoss="47.76" rerouteNo="0" devices="tripinfo_vertical.19" vType="DEFAULT_VEHTYPE" vaporized=""/>
    <tripinfo id="vertical.20" depart="303.00" departLane="3fi_0" departPos="5.10" departSpeed="0.00" departDelay="3.00" arrival="537.00" arrivalLane="3fi_0" arrivalPos="248.50" arrivalSpeed="9.84" duration="234.00" routeLength="2257.40" waitSteps="17" timeLoss="40.31" rerouteNo="0" devices="tripinfo_vertical.20" vType="DEFAULT_VEHTYPE" vaporized=""/>
    <tripinfo id="vertical.21" depart="313.00" departLane="3fi_0" departPos="5.10" departSpeed="0.00" departDelay="3.00" arrival="539.00" arrivalLane="3fi_0" arrivalPos="248.50" arrivalSpeed="10.49" duration="226.00" routeLength="2257.40" waitSteps="6" timeLoss="32.02" rerouteNo="0" devices="tripinfo_vertical.21" vType="DEFAULT_VEHTYPE" vaporized=""/>
    <tripinfo id="vertical.22" depart="334.00" departLane="3fi_0" departPos="5.10" departSpeed="0.00" departDelay="14.00" arrival="545.00" arrivalLane="3fi_0" arrivalPos="248.50" arrivalSpeed="10.04" duration="211.00" routeLength="2257.40" waitSteps="0" timeLoss="16.20" rerouteNo="0" devices="tripinfo_vertical.22" vType="DEFAULT_VEHTYPE" vaporized=""/>
    <tripinfo id="vertical.23" depart="343.00" departLane="3fi_0" departPos="5.10" departSpeed="0.00" departDelay="13.00" arrival="554.00" arrivalLane="3fi_0" arrivalPos="248.50" arrivalSpeed="10.54" duration="211.00" routeLength="2257.40" waitSteps="0" timeLoss="16.19" rerouteNo="0" devices="tripinfo_vertical.23" vType="DEFAULT_VEHTYPE" vaporized=""/>
    <tripinfo id="horizontal.20" depart="300.00" departLane="2fi_0" departPos="5.10" departSpeed="0.00" departDelay="0.00" arrival="572.00" arrivalLane="2fi_0" arrivalPos="248.50" arrivalSpeed="9.97" duration="272.00" routeLength="2257.40" waitSteps="55" timeLoss="78.22" rerouteNo="0" devices="tripinfo_horizontal.20" vType="DEFAULT_VEHTYPE" vaporized=""/>
    <tripinfo id="horizontal.21" depart="310.00" departLane="2fi_0" departPos="5.10" departSpeed="0.00" departDelay="0.00" arrival="574.00" arrivalLane="2fi_0" arrivalPos="248.50" arrivalSpeed="10.28" duration="264.00" routeLength="2257.40" waitSteps="47" timeLoss="71.39" rerouteNo="0" devices="tripinfo_horizontal.21" vType="DEFAULT_VEHTYPE" vaporized=""/>
    <tripinfo id="horizontal.22" depart="336.00" departLane="2fi_0" departPos="5.10" departSpeed="0.00" departDelay="16.00" arrival="576.00" arrivalLane="2fi_0" arrivalPos="248.50" arrivalSpeed="10.74" duration="240.00" routeLength="2257.40" waitSteps="24" timeLoss="46.05" rerouteNo="0" devices="tripinfo_horizontal.22" vType="DEFAULT_VEHTYPE" vaporized=""/>
    <tripinfo id="horizontal.23" depart="345.00" departLane="2fi_0" departPos="5.10" departSpeed="0.00" departDelay="15.00" arrival="578.00" arrivalLane="2fi_0" arrivalPos="248.50" arrivalSpeed="10.99" duration="233.00" routeLength="2257.40" waitSteps="16" timeLoss="39.75" rerouteNo="0" devices="tripinfo_horizontal.23" vType="DEFAULT_VEHTYPE" vaporized=""/>
    <tripinfo id="horizontal.24" depart="348.00" departLane="2fi_0" departPos="5.10" departSpeed="0.00" departDelay="8.00" arrival="580.00" arrivalLane="2fi_0" arrivalPos="248.50" arrivalSpeed="10.49" duration="232.00" routeLength="2257.40" waitSteps="14" timeLoss="38.13" rerouteNo="0" devices="tripinfo_horizontal.24" vType="DEFAULT_VEHTYPE" vaporized=""/>
    <tripinfo id="horizontal.25" depart="358.00" departLane="2fi_0" departPos="5.10" departSpeed="0.00" departDelay="8.00" arrival="582.00" arrivalLane="2fi_0" arrivalPos="248.50" arrivalSpeed="9.92" duration="224.00" routeLength="2257.40" waitSteps="6" timeLoss="29.90" rerouteNo="0" devices="tripinfo_horizontal.25" vType="DEFAULT_VEHTYPE" vaporized=""/>
    <tripinfo id="horizontal.26" depart="361.00" departLane="2fi_0" departPos="5.10" departSpeed="0.00" departDelay="1.00" arrival="584.00" arrivalLane="2fi_0" arrivalPos="248.50" arrivalSpeed="10.53" duration="223.00" routeLength="2257.40" waitSteps="4" timeLoss="28.82" rerouteNo="0" devices="tripinfo_horizontal.26" vType="DEFAULT_VEHTYPE" vaporized=""/>
    <tripinfo id="horizontal.27" depart="383.00" departLane="2fi_0" departPos="5.10" departSpeed="0.00" departDelay="13.00" arrival="593.00" arrivalLane="2fi_0" arrivalPos="248.50" arrivalSpeed="11.03" duration="210.00" routeLength="2257.40" waitSteps="0" timeLoss="15.16" rerouteNo="0" devices="tripinfo_horizontal.27" vType="DEFAULT_VEHTYPE" vaporized=""/>
    <tripinfo id="horizontal.28" depart="389.00" departLane="2fi_0" departPos="5.10" departSpeed="0.00" departDelay="9.00" arrival="598.00" arrivalLane="2fi_0" arrivalPos="248.50" arrivalSpeed="10.09" duration="209.00" routeLength="2257.40" waitSteps="0" timeLoss="14.73" rerouteNo="0" devices="tripinfo_horizontal.28" vType="DEFAULT_VEHTYPE" vaporized=""/>
    <tripinfo id="vertical.24" depart="352.00" departLane="3fi_0" departPos="5.10" departSpeed="0.00" departDelay="12.00" arrival="619.00" arrivalLane="3fi_0" arrivalPos="248.50" arrivalSpeed="9.84" duration="267.00" routeLength="2257.40" waitSteps="51" timeLoss="73.52" rerouteNo="0" devices="tripinfo_vertical.24" vType="DEFAULT_VEHTYPE" vaporized=""/>
    <tripinfo id="vertical.25" depart="358.00" departLane="3fi_0" departPos="5.10" departSpeed="0.00" departDelay="8.00" arrival="621.00" arrivalLane="3fi_0" arrivalPos="248.50" arrivalSpeed="9.85" duration="263.00" routeLength="2257.40" waitSteps="47" timeLoss="70.21" rerouteNo="0" devices="tripinfo_vertical.25" vType="DEFAULT_VEHTYPE" vaporized=""/>
    <tripinfo id="vertical.26" depart="364.00" departLane="3fi_0" departPos="5.10" departSpeed="0.00" departDelay="4.00" arrival="623.00" arrivalLane="3fi_0" arrivalPos="248.50" arrivalSpeed="10.40" duration="259.00" routeLength="2257.40" waitSteps="40" timeLoss="65.59" rerouteNo="0" devices="tripinfo_vertical.26" vType="DEFAULT_VEHTYPE" vaporized=""/>
    <tripinfo id="vertical.27" depart="373.00" departLane="3fi_0" departPos="5.10" departSpeed="0.00" departDelay="3.00" arrival="625.00" arrivalLane="3fi_0" arrivalPos="248.50" arrivalSpeed="11.09" duration="252.00" routeLength="2257.40" waitSteps="34" timeLoss="58.23" rerouteNo="0" devices="tripinfo_vertical.27" vType="DEFAULT_VEHTYPE" vaporized=""/>
    <tripinfo id="vertical.28" depart="383.00" departLane="3fi_0" departPos="5.10" departSpeed="0.00" departDelay="3.00" arrival="627.00" arrivalLane="3fi_0" arrivalPos="248.50" arrivalSpeed="10.81" duration="244.00" routeLength="2257.40" waitSteps="25" timeLoss="51.07" rerouteNo="0" devices="tripinfo_vertical.28" vType="DEFAULT_VEHTYPE" vaporized=""/>
    <tripinfo id="vertical.29" depart="394.00" departLane="3fi_0" departPos="5.10" departSpeed="0.00" departDelay="4.00" arrival="629.00" arrivalLane="3fi_0" arrivalPos="248.50" arrivalSpeed="10.44" duration="235.00" routeLength="2257.40" waitSteps="16" timeLoss="42.41" rerouteNo="0" devices="tripinfo_vertical.29" vType="DEFAULT_VEHTYPE" vaporized=""/>
    <tripinfo id="vertical.30" depart="403.00" departLane="3fi_0" departPos="5.10" departSpeed="0.00" departDelay="3.00" arrival="631.00" arrivalLane="3fi_0" arrivalPos="248.50" arrivalSpeed="10.10" duration="228.00" routeLength="2257.40" waitSteps="8" timeLoss="34.19" rerouteNo="0" devices="tripinfo_vertical.30" vType="DEFAULT_VEHTYPE" vaporized=""/>
    <tripinfo id="always_left.0" depart="100.00" departLane="1fi_0" departPos="5.10" departSpeed="0.00" departDelay="0.00" arrival="634.00" arrivalLane="1fi_0" arrivalPos="248.50" arrivalSpeed="10.48" duration="534.00" routeLength="4211.12" waitSteps="113" timeLoss="175.56" rerouteNo="0" devices="tripinfo_always_left.0" vType="DEFAULT_VEHTYPE" vaporized=""/>
    <tripinfo id="vertical.31" depart="430.00" departLane="3fi_0" departPos="5.10" departSpeed="0.00" departDelay="20.00" arrival="640.00" arrivalLane="3fi_0" arrivalPos="248.50" arrivalSpeed="10.30" duration="210.00" routeLength="2257.40" waitSteps="0" timeLoss="14.68" rerouteNo="0" devices="tripinfo_vertical.31" vType="DEFAULT_VEHTYPE" vaporized=""/>
    <tripinfo id="always_left.1" depart="110.00" departLane="1fi_0" departPos="5.10" departSpeed="0.00" departDelay="0.00" arrival="644.00" arrivalLane="1fi_0" arrivalPos="248.50" arrivalSpeed="10.67" duration="534.00" routeLength="4211.12" waitSteps="97" timeLoss="176.43" rerouteNo="0" devices="tripinfo_always_left.1" vType="DEFAULT_VEHTYPE" vaporized=""/>
    <tripinfo id="always_left.2" depart="120.00" departLane="1fi_0" departPos="5.10" departSpeed="0.00" departDelay="0.00" arrival="646.00" arrivalLane="1fi_0" arrivalPos="248.50" arrivalSpeed="10.70" duration="526.00" routeLength="4211.12" waitSteps="80" timeLoss="169.50" rerouteNo="0" devices="tripinfo_always_left.2" vType="DEFAULT_VEHTYPE" vaporized=""/>
    <tripinfo id="always_left.3" depart="130.00" departLane="1fi_0" departPos="5.10" departSpeed="0.00" departDelay="0.00" arrival="648.00" arrivalLane="1fi_0" arrivalPos="248.50" arrivalSpeed="10.49" duration="518.00" routeLength="4211.12" waitSteps="67" timeLoss="162.19" rerouteNo="0" devices="tripinfo_always_left.3" vType="DEFAULT_VEHTYPE" vaporized=""/>
    <tripinfo id="always_right.0" depart="100.00" departLane="3fi_0" departPos="5.10" departSpeed="0.00" departDelay="0.00" arrival="659.00" arrivalLane="3fi_0" arrivalPos="248.50" arrivalSpeed="9.91" duration="559.00" routeLength="4223.00" waitSteps="153" timeLoss="200.51" rerouteNo="0" devices="tripinfo_always_right.0" vType="DEFAULT_VEHTYPE" vaporized=""/>
    <tripinfo id="horizontal.29" depart="392.00" departLane="2fi_0" departPos="5.10" departSpeed="0.00" departDelay="2.00" arrival="661.00" arrivalLane="2fi_0" arrivalPos="248.50" arrivalSpeed="10.09" duration="269.00" routeLength="2257.40" waitSteps="56" timeLoss="76.31" rerouteNo="0" devices="tripinfo_horizontal.29" vType="DEFAULT_VEHTYPE" vaporized=""/>
    <tripinfo id="always_right.1" depart="110.00" departLane="3fi_0" departPos="5.10" departSpeed="0.00" departDelay="0.00" arrival="661.00" arrivalLane="3fi_0" arrivalPos="248.50" arrivalSpeed="10.78" duration="551.00" routeLength="4223.00" waitSteps="139" timeLoss="193.90" rerouteNo="0" devices="tripinfo_always_right.1" vType="DEFAULT_VEHTYPE" vaporized=""/>
    <tripinfo id="always_right.2" depart="120.00" departLane="3fi_0" departPos="5.10" departSpeed="0.00" departDelay="0.00" arrival="664.00" arrivalLane="3fi_0" arrivalPos="248.50" arrivalSpeed="11.00" duration="544.00" routeLength="4223.00" waitSteps="127" timeLoss="186.29" rerouteNo="0" devices="tripinfo_always_right.2" vType="DEFAULT_VEHTYPE" vaporized=""/>
    <tripinfo id="horizontal.30" depart="400.00" departLane="2fi_0" departPos="5.10" departSpeed="0.00" departDelay="0.00" arrival="665.00" arrivalLane="2fi_0" arrivalPos="248.50" arrivalSpeed="10.85" duration="265.00" routeLength="2257.40" waitSteps="49" timeLoss="71.33" rerouteNo="0" devices="tripinfo_horizontal.30" vType="DEFAULT_VEHTYPE" vaporized=""/>
    <tripinfo id="always_right.3" depart="130.00" departLane="3fi_0" departPos="5.10" departSpeed="0.00" departDelay="0.00" arrival="666.00" arrivalLane="3fi_0" arrivalPos="248.50" arrivalSpeed="11.02" duration="536.00" routeLength="4223.00" waitSteps="116" timeLoss="180.34" rerouteNo="0" devices="tripinfo_always_right.3" vType="DEFAULT_VEHTYPE" vaporized=""/>
    <tripinfo id="horizontal.31" depart="424.00" departLane="2fi_0" departPos="5.10" departSpeed="0.00" departDelay="14.00" arrival="667.00" arrivalLane="2fi_0" arrivalPos="248.50" arrivalSpeed="10.35" duration="243.00" routeLength="2257.40" waitSteps="28" timeLoss="49.62" rerouteNo="0" devices="tripinfo_horizontal.31" vType="DEFAULT_VEHTYPE" vaporized=""/>
    <tripinfo id="always_right.4" depart="140.00" departLane="3fi_0" departPos="5.10" departSpeed="0.00" departDelay="0.00" arrival="668.00" arrivalLane="3fi_0" arrivalPos="248.50" arrivalSpeed="10.09" duration="528.00" routeLength="4223.00" waitSteps="108" timeLoss="170.96" rerouteNo="0" devices="tripinfo_always_right.4" vType="DEFAULT_VEHTYPE" vaporized=""/>
    <tripinfo id="horizontal.32" depart="427.00" departLane="2fi_0" departPos="5.10" departSpeed="0.00" departDelay="7.00" arrival="669.00" arrivalLane="2fi_0" arrivalPos="248.50" arrivalSpeed="10.72" duration="242.00" routeLength="2257.40" waitSteps="25" timeLoss="48.26" rerouteNo="0" devices="tripinfo_horizontal.32" vType="DEFAULT_VEHTYPE" vaporized=""/>
    <tripinfo id="always_right.5" depart="150.00" departLane="3fi_0" departPos="5.10" departSpeed="0.00" departDelay="0.00" arrival="670.00" arrivalLane="3fi_0" arrivalPos="248.50" arrivalSpeed="11.09" duration="520.00" routeLength="4223.00" waitSteps="102" timeLoss="164.10" rerouteNo="0" devices="tripinfo_always_right.5" vType="DEFAULT_VEHTYPE" vaporized=""/>
    <tripinfo id="horizontal.33" depart="434.00" departLane="2fi_0" departPos="5.10" departSpeed="0.00" departDelay="4.00" arrival="671.00" arrivalLane="2fi_0" arrivalPos="248.50" arrivalSpeed="10.44" duration="237.00" routeLength="2257.40" waitSteps="20" timeLoss="44.12" rerouteNo="0" devices="tripinfo_horizontal.33" vType="DEFAULT_VEHTYPE" vaporized=""/>
    <tripinfo id="always_right.6" depart="160.00" departLane="3fi_0" departPos="5.10" departSpeed="0.00" departDelay="0.00" arrival="672.00" arrivalLane="3fi_0" arrivalPos="248.50" arrivalSpeed="9.90" duration="512.00" routeLength="4223.00" waitSteps="95" timeLoss="154.78" rerouteNo="0" devices="tripinfo_always_right.6" vType="DEFAULT_VEHTYPE" vaporized=""/>
    <tripinfo id="horizontal.34" depart="451.00" departLane="2fi_0" departPos="5.10" departSpeed="0.00" departDelay="11.00" arrival="673.00" arrivalLane="2fi_0" arrivalPos="248.50" arrivalSpeed="10.12" duration="222.00" routeLength="2257.40" waitSteps="4" timeLoss="28.06" rerouteNo="0" devices="tripinfo_horizontal.34" vType="DEFAULT_VEHTYPE" vaporized=""/>
    <tripinfo id="horizontal.35" depart="455.00" departLane="2fi_0" departPos="5.10" departSpeed="0.00" departDelay="5.00" arrival="676.00" arrivalLane="2fi_0" arrivalPos="248.50" arrivalSpeed="11.08" duration="221.00" routeLength="2257.40" waitSteps="2" timeLoss="26.05" rerouteNo="0" devices="tripinfo_horizontal.35" vType="DEFAULT_VEHTYPE" vaporized=""/>
    <tripinfo id="horizontal.36" depart="473.00" departLane="2fi_0" departPos="5.10" departSpeed="0.00" departDelay="13.00" arrival="683.00" arrivalLane="2fi_0" arrivalPos="248.50" arrivalSpeed="10.97" duration="210.00" routeLength="2257.40" waitSteps="0" timeLoss="14.79" rerouteNo="0" devices="tripinfo_horizontal.36" vType="DEFAULT_VEHTYPE" vaporized=""/>
    <tripinfo id="horizontal.37" depart="479.00" departLane="2fi_0" departPos="5.10" departSpeed="0.00" departDelay="9.00" arrival="690.00" arrivalLane="2fi_0" arrivalPos="248.50" arrivalSpeed="10.12" duration="211.00" routeLength="2257.40" waitSteps="0" timeLoss="15.84" rerouteNo="0" devices="tripinfo_horizontal.37" vType="DEFAULT_VEHTYPE" vaporized=""/>