<?xml version="1.0" encoding="UTF-8"?>

<!-- generated on Thu May 12 15:24:56 2016 by SUMO Version dev-SVN-r20713
<?xml version="1.0" encoding="UTF-8"?>

<configuration xmlns:xsi="http://www.w3.org/2001/XMLSchema-instance" xsi:noNamespaceSchemaLocation="http://sumo.dlr.de/xsd/sumoConfiguration.xsd">

    <input>
        <net-file value="net2.net.xml"/>
        <route-files value="input_routes.rou.xml"/>
    </input>

    <output>
        <fcd-output value="fcd.xml"/>
        <tripinfo-output value="tripinfos.xml"/>
    </output>

    <report>
        <xml-validation value="never"/>
        <no-step-log value="true"/>
    </report>

</configuration>
-->

<fcd-export xmlns:xsi="http://www.w3.org/2001/XMLSchema-instance" xsi:noNamespaceSchemaLocation="http://sumo.dlr.de/xsd/fcd_file.xsd">
    <timestep time="0.00">
        <vehicle id="stopped" x="40.00" y="-1.65" angle="90.00" type="DEFAULT_VEHTYPE" speed="0.00" pos="40.00" lane="VODUGES_beg_0" slope="0.00"/>
    </timestep>
    <timestep time="1.00">
        <vehicle id="stopped" x="40.72" y="-1.65" angle="90.00" type="DEFAULT_VEHTYPE" speed="1.44" pos="40.72" lane="VODUGES_beg_0" slope="0.00"/>
    </timestep>
    <timestep time="2.00">
        <vehicle id="stopped" x="43.00" y="-1.65" angle="90.00" type="DEFAULT_VEHTYPE" speed="3.12" pos="43.00" lane="VODUGES_beg_0" slope="0.00"/>
    </timestep>
    <timestep time="3.00">
        <vehicle id="oncoming1" x="95.25" y="1.65" angle="270.00" type="DEFAULT_VEHTYPE" speed="0.00" pos="100.00" lane="-VODUGES_end_0" slope="0.00"/>
        <vehicle id="oncoming2" x="175.25" y="1.65" angle="270.00" type="DEFAULT_VEHTYPE" speed="0.00" pos="20.00" lane="-VODUGES_end_0" slope="0.00"/>
        <vehicle id="oncoming3" x="195.25" y="1.65" angle="225.00" type="DEFAULT_VEHTYPE" speed="0.00" pos="0.00" lane="-VODUGES_end_0" slope="0.00"/>
        <vehicle id="stopped" x="47.39" y="-1.65" angle="90.00" type="DEFAULT_VEHTYPE" speed="5.66" pos="2.14" lane=":C_4_0" slope="0.00"/>
    </timestep>
    <timestep time="4.00">
        <vehicle id="oncoming1" x="94.27" y="1.65" angle="270.00" type="DEFAULT_VEHTYPE" speed="1.96" pos="100.98" lane="-VODUGES_end_0" slope="0.00"/>
        <vehicle id="oncoming2" x="174.33" y="1.65" angle="270.00" type="DEFAULT_VEHTYPE" speed="1.83" pos="20.92" lane="-VODUGES_end_0" slope="0.00"/>
        <vehicle id="oncoming3" x="193.98" y="1.65" angle="246.31" type="DEFAULT_VEHTYPE" speed="2.54" pos="1.27" lane="-VODUGES_end_0" slope="0.00"/>
        <vehicle id="overtaking" x="0.00" y="-1.65" angle="90.00" type="DEFAULT_VEHTYPE" speed="0.00" pos="0.00" lane="VODUGES_beg_0" slope="0.00"/>
        <vehicle id="stopped" x="53.86" y="-1.65" angle="90.00" type="DEFAULT_VEHTYPE" speed="7.29" pos="8.61" lane=":C_4_0" slope="0.00"/>
        <vehicle id="stopped2" x="40.00" y="-1.65" angle="90.00" type="DEFAULT_VEHTYPE" speed="0.00" pos="40.00" lane="VODUGES_beg_0" slope="0.00"/>
    </timestep>
    <timestep time="5.00">
        <vehicle id="oncoming1" x="91.49" y="1.65" angle="270.00" type="DEFAULT_VEHTYPE" speed="3.59" pos="103.76" lane="-VODUGES_end_0" slope="0.00"/>
        <vehicle id="oncoming2" x="171.20" y="1.65" angle="270.00" type="DEFAULT_VEHTYPE" speed="4.43" pos="24.05" lane="-VODUGES_end_0" slope="0.00"/>
        <vehicle id="oncoming3" x="190.57" y="1.65" angle="269.49" type="DEFAULT_VEHTYPE" speed="4.27" pos="4.68" lane="-VODUGES_end_0" slope="0.00"/>
        <vehicle id="overtaking" x="0.95" y="-1.65" angle="90.00" type="DEFAULT_VEHTYPE" speed="1.89" pos="0.95" lane="VODUGES_beg_0" slope="0.00"/>
        <vehicle id="stopped" x="59.69" y="-1.65" angle="90.00" type="DEFAULT_VEHTYPE" speed="4.37" pos="4.94" lane="VODUGES_end_0" slope="0.00"/>
        <vehicle id="stopped2" x="41.14" y="-1.65" angle="90.00" type="DEFAULT_VEHTYPE" speed="2.28" pos="41.14" lane="VODUGES_beg_0" slope="0.00"/>
    </timestep>
    <timestep time="6.00">
        <vehicle id="oncoming1" x="86.64" y="1.65" angle="270.00" type="DEFAULT_VEHTYPE" speed="6.11" pos="108.61" lane="-VODUGES_end_0" slope="0.00"/>
        <vehicle id="oncoming2" x="166.05" y="1.65" angle="270.00" type="DEFAULT_VEHTYPE" speed="5.89" pos="29.20" lane="-VODUGES_end_0" slope="0.00"/>
        <vehicle id="oncoming3" x="185.21" y="1.65" angle="270.00" type="DEFAULT_VEHTYPE" speed="6.45" pos="10.04" lane="-VODUGES_end_0" slope="0.00"/>
        <vehicle id="overtaking" x="3.96" y="-1.65" angle="90.00" type="DEFAULT_VEHTYPE" speed="4.15" pos="3.96" lane="VODUGES_beg_0" slope="0.00"/>
        <vehicle id="stopped" x="62.40" y="-1.65" angle="90.00" type="DEFAULT_VEHTYPE" speed="1.04" pos="7.65" lane="VODUGES_end_0" slope="0.00"/>
        <vehicle id="stopped2" x="43.50" y="-1.65" angle="90.00" type="DEFAULT_VEHTYPE" speed="2.45" pos="43.50" lane="VODUGES_beg_0" slope="0.00"/>
    </timestep>
    <timestep time="7.00">
        <vehicle id="oncoming1" x="79.56" y="1.65" angle="270.00" type="DEFAULT_VEHTYPE" speed="8.05" pos="115.69" lane="-VODUGES_end_0" slope="0.00"/>
        <vehicle id="oncoming2" x="159.06" y="1.65" angle="270.00" type="DEFAULT_VEHTYPE" speed="8.09" pos="36.19" lane="-VODUGES_end_0" slope="0.00"/>
        <vehicle id="oncoming3" x="178.15" y="1.65" angle="270.00" type="DEFAULT_VEHTYPE" speed="7.68" pos="17.10" lane="-VODUGES_end_0" slope="0.00"/>
        <vehicle id="overtaking" x="9.38" y="-1.65" angle="90.00" type="DEFAULT_VEHTYPE" speed="6.69" pos="9.38" lane="VODUGES_beg_0" slope="0.00"/>
        <vehicle id="stopped" x="62.52" y="-1.65" angle="90.00" type="DEFAULT_VEHTYPE" speed="0.00" pos="7.77" lane="VODUGES_end_0" slope="0.00"/>
        <vehicle id="stopped2" x="44.89" y="-1.65" angle="90.00" type="DEFAULT_VEHTYPE" speed="0.32" pos="44.89" lane="VODUGES_beg_0" slope="0.00"/>
    </timestep>
    <timestep time="8.00">
        <vehicle id="oncoming1" x="70.79" y="1.65" angle="270.00" type="DEFAULT_VEHTYPE" speed="9.49" pos="124.46" lane="-VODUGES_end_0" slope="0.00"/>
        <vehicle id="oncoming2" x="149.93" y="1.65" angle="270.00" type="DEFAULT_VEHTYPE" speed="10.17" pos="45.32" lane="-VODUGES_end_0" slope="0.00"/>
        <vehicle id="oncoming3" x="169.87" y="1.65" angle="270.00" type="DEFAULT_VEHTYPE" speed="8.88" pos="25.38" lane="-VODUGES_end_0" slope="0.00"/>
        <vehicle id="overtaking" x="16.83" y="-1.65" angle="90.00" type="DEFAULT_VEHTYPE" speed="8.22" pos="16.83" lane="VODUGES_beg_0" slope="0.00"/>
        <vehicle id="stopped" x="62.63" y="-1.65" angle="90.00" type="DEFAULT_VEHTYPE" speed="0.22" pos="7.88" lane="VODUGES_end_0" slope="0.00"/>
        <vehicle id="stopped2" x="44.90" y="-1.65" angle="90.00" type="DEFAULT_VEHTYPE" speed="0.00" pos="44.90" lane="VODUGES_beg_0" slope="0.00"/>
    </timestep>
    <timestep time="9.00">
        <vehicle id="oncoming1" x="60.49" y="1.65" angle="270.00" type="DEFAULT_VEHTYPE" speed="11.10" pos="134.76" lane="-VODUGES_end_0" slope="0.00"/>
        <vehicle id="oncoming2" x="138.56" y="1.65" angle="270.00" type="DEFAULT_VEHTYPE" speed="12.57" pos="56.69" lane="-VODUGES_end_0" slope="0.00"/>
        <vehicle id="oncoming3" x="160.45" y="1.65" angle="270.00" type="DEFAULT_VEHTYPE" speed="9.94" pos="34.80" lane="-VODUGES_end_0" slope="0.00"/>
        <vehicle id="overtaking" x="25.81" y="-1.65" angle="90.00" type="DEFAULT_VEHTYPE" speed="9.73" pos="25.81" lane="VODUGES_beg_0" slope="0.00"/>
        <vehicle id="stopped" x="62.75" y="-1.65" angle="90.00" type="DEFAULT_VEHTYPE" speed="0.01" pos="8.00" lane="VODUGES_end_0" slope="0.00"/>
        <vehicle id="stopped2" x="44.90" y="-1.65" angle="90.00" type="DEFAULT_VEHTYPE" speed="0.00" pos="44.90" lane="VODUGES_beg_0" slope="0.00"/>
    </timestep>
    <timestep time="10.00">
        <vehicle id="oncoming1" x="48.31" y="1.65" angle="270.00" type="DEFAULT_VEHTYPE" speed="13.27" pos="6.44" lane=":C_3_0" slope="0.00"/>
        <vehicle id="oncoming2" x="125.42" y="1.65" angle="270.00" type="DEFAULT_VEHTYPE" speed="13.72" pos="69.83" lane="-VODUGES_end_0" slope="0.00"/>
        <vehicle id="oncoming3" x="149.30" y="1.65" angle="270.00" type="DEFAULT_VEHTYPE" speed="12.38" pos="45.95" lane="-VODUGES_end_0" slope="0.00"/>
        <vehicle id="overtaking" x="33.29" y="-1.65" angle="90.00" type="DEFAULT_VEHTYPE" speed="5.23" pos="33.29" lane="VODUGES_beg_0" slope="0.00"/>
        <vehicle id="stopped" x="62.75" y="-1.65" angle="90.00" type="DEFAULT_VEHTYPE" speed="0.00" pos="8.00" lane="VODUGES_end_0" slope="0.00"/>
        <vehicle id="stopped2" x="44.90" y="-1.65" angle="90.00" type="DEFAULT_VEHTYPE" speed="0.00" pos="44.90" lane="VODUGES_beg_0" slope="0.00"/>
    </timestep>
    <timestep time="11.00">
        <vehicle id="oncoming1" x="35.00" y="1.65" angle="270.00" type="DEFAULT_VEHTYPE" speed="13.36" pos="10.25" lane="-VODUGES_beg_0" slope="0.00"/>
        <vehicle id="oncoming2" x="111.72" y="1.65" angle="270.00" type="DEFAULT_VEHTYPE" speed="13.67" pos="83.53" lane="-VODUGES_end_0" slope="0.00"/>
        <vehicle id="oncoming3" x="136.53" y="1.65" angle="270.00" type="DEFAULT_VEHTYPE" speed="13.15" pos="58.72" lane="-VODUGES_end_0" slope="0.00"/>
        <vehicle id="overtaking" x="36.82" y="-1.65" angle="90.00" type="DEFAULT_VEHTYPE" speed="1.82" pos="36.82" lane="VODUGES_beg_0" slope="0.00"/>
        <vehicle id="stopped" x="62.75" y="-1.65" angle="90.00" type="DEFAULT_VEHTYPE" speed="0.00" pos="8.00" lane="VODUGES_end_0" slope="0.00"/>
        <vehicle id="stopped2" x="44.90" y="-1.65" angle="90.00" type="DEFAULT_VEHTYPE" speed="0.00" pos="44.90" lane="VODUGES_beg_0" slope="0.00"/>
    </timestep>
    <timestep time="12.00">
        <vehicle id="oncoming1" x="21.53" y="1.65" angle="270.00" type="DEFAULT_VEHTYPE" speed="13.58" pos="23.72" lane="-VODUGES_beg_0" slope="0.00"/>
        <vehicle id="oncoming2" x="98.38" y="1.65" angle="270.00" type="DEFAULT_VEHTYPE" speed="13.02" pos="96.87" lane="-VODUGES_end_0" slope="0.00"/>
        <vehicle id="oncoming3" x="123.48" y="1.65" angle="270.00" type="DEFAULT_VEHTYPE" speed="12.96" pos="71.77" lane="-VODUGES_end_0" slope="0.00"/>
        <vehicle id="overtaking" x="37.19" y="-1.65" angle="90.00" type="DEFAULT_VEHTYPE" speed="0.00" pos="37.19" lane="VODUGES_beg_0" slope="0.00"/>
        <vehicle id="stopped" x="62.75" y="-1.65" angle="90.00" type="DEFAULT_VEHTYPE" speed="0.00" pos="8.00" lane="VODUGES_end_0" slope="0.00"/>
        <vehicle id="stopped2" x="44.90" y="-1.65" angle="90.00" type="DEFAULT_VEHTYPE" speed="0.00" pos="44.90" lane="VODUGES_beg_0" slope="0.00"/>
    </timestep>
    <timestep time="13.00">
        <vehicle id="oncoming1" x="8.18" y="1.65" angle="270.00" type="DEFAULT_VEHTYPE" speed="13.11" pos="37.07" lane="-VODUGES_beg_0" slope="0.00"/>
        <vehicle id="oncoming2" x="85.12" y="1.65" angle="270.00" type="DEFAULT_VEHTYPE" speed="13.49" pos="110.13" lane="-VODUGES_end_0" slope="0.00"/>
        <vehicle id="oncoming3" x="110.38" y="1.65" angle="270.00" type="DEFAULT_VEHTYPE" speed="13.25" pos="84.87" lane="-VODUGES_end_0" slope="0.00"/>
        <vehicle id="overtaking" x="37.29" y="-1.65" angle="90.00" type="DEFAULT_VEHTYPE" speed="0.20" pos="37.29" lane="VODUGES_beg_0" slope="0.00"/>
        <vehicle id="stopped" x="62.75" y="-1.65" angle="90.00" type="DEFAULT_VEHTYPE" speed="0.00" pos="8.00" lane="VODUGES_end_0" slope="0.00"/>
        <vehicle id="stopped2" x="44.90" y="-1.65" angle="90.00" type="DEFAULT_VEHTYPE" speed="0.00" pos="44.90" lane="VODUGES_beg_0" slope="0.00"/>
    </timestep>
    <timestep time="14.00">
        <vehicle id="oncoming2" x="71.85" y="1.65" angle="270.00" type="DEFAULT_VEHTYPE" speed="13.06" pos="123.40" lane="-VODUGES_end_0" slope="0.00"/>
        <vehicle id="oncoming3" x="96.90" y="1.65" angle="270.00" type="DEFAULT_VEHTYPE" speed="13.69" pos="98.35" lane="-VODUGES_end_0" slope="0.00"/>
        <vehicle id="overtaking" x="37.40" y="-1.65" angle="90.00" type="DEFAULT_VEHTYPE" speed="0.02" pos="37.40" lane="VODUGES_beg_0" slope="0.00"/>
        <vehicle id="stopped" x="62.75" y="-1.65" angle="90.00" type="DEFAULT_VEHTYPE" speed="0.00" pos="8.00" lane="VODUGES_end_0" slope="0.00"/>
        <vehicle id="stopped2" x="44.90" y="-1.65" angle="90.00" type="DEFAULT_VEHTYPE" speed="0.00" pos="44.90" lane="VODUGES_beg_0" slope="0.00"/>
    </timestep>
    <timestep time="15.00">
        <vehicle id="oncoming2" x="58.73" y="1.65" angle="270.00" type="DEFAULT_VEHTYPE" speed="13.18" pos="136.52" lane="-VODUGES_end_0" slope="0.00"/>
        <vehicle id="oncoming3" x="83.72" y="1.65" angle="270.00" type="DEFAULT_VEHTYPE" speed="12.68" pos="111.53" lane="-VODUGES_end_0" slope="0.00"/>
        <vehicle id="overtaking" x="37.40" y="-1.65" angle="90.00" type="DEFAULT_VEHTYPE" speed="0.00" pos="37.40" lane="VODUGES_beg_0" slope="0.00"/>
        <vehicle id="stopped" x="62.75" y="-1.65" angle="90.00" type="DEFAULT_VEHTYPE" speed="0.00" pos="8.00" lane="VODUGES_end_0" slope="0.00"/>
        <vehicle id="stopped2" x="44.90" y="-1.65" angle="90.00" type="DEFAULT_VEHTYPE" speed="0.00" pos="44.90" lane="VODUGES_beg_0" slope="0.00"/>
    </timestep>
    <timestep time="16.00">
        <vehicle id="oncoming2" x="45.40" y="1.65" angle="270.00" type="DEFAULT_VEHTYPE" speed="13.48" pos="9.35" lane=":C_3_0" slope="0.00"/>
        <vehicle id="oncoming3" x="70.65" y="1.65" angle="270.00" type="DEFAULT_VEHTYPE" speed="13.45" pos="124.60" lane="-VODUGES_end_0" slope="0.00"/>
        <vehicle id="overtaking" x="37.40" y="-1.65" angle="90.00" type="DEFAULT_VEHTYPE" speed="0.00" pos="37.40" lane="VODUGES_beg_0" slope="0.00"/>
        <vehicle id="stopped" x="62.75" y="-1.65" angle="90.00" type="DEFAULT_VEHTYPE" speed="0.00" pos="8.00" lane="VODUGES_end_0" slope="0.00"/>
        <vehicle id="stopped2" x="44.90" y="-1.65" angle="90.00" type="DEFAULT_VEHTYPE" speed="0.00" pos="44.90" lane="VODUGES_beg_0" slope="0.00"/>
    </timestep>
    <timestep time="17.00">
        <vehicle id="oncoming2" x="31.77" y="1.65" angle="270.00" type="DEFAULT_VEHTYPE" speed="13.78" pos="13.48" lane="-VODUGES_beg_0" slope="0.00"/>
        <vehicle id="oncoming3" x="57.01" y="1.65" angle="270.00" type="DEFAULT_VEHTYPE" speed="13.83" pos="138.24" lane="-VODUGES_end_0" slope="0.00"/>
        <vehicle id="overtaking" x="37.40" y="-1.65" angle="90.00" type="DEFAULT_VEHTYPE" speed="0.00" pos="37.40" lane="VODUGES_beg_0" slope="0.00"/>
        <vehicle id="stopped" x="62.75" y="-1.65" angle="90.00" type="DEFAULT_VEHTYPE" speed="0.00" pos="8.00" lane="VODUGES_end_0" slope="0.00"/>
        <vehicle id="stopped2" x="44.90" y="-1.65" angle="90.00" type="DEFAULT_VEHTYPE" speed="0.00" pos="44.90" lane="VODUGES_beg_0" slope="0.00"/>
    </timestep>
    <timestep time="18.00">
        <vehicle id="oncoming2" x="17.99" y="1.65" angle="270.00" type="DEFAULT_VEHTYPE" speed="13.79" pos="27.26" lane="-VODUGES_beg_0" slope="0.00"/>
        <vehicle id="oncoming3" x="43.34" y="1.65" angle="270.00" type="DEFAULT_VEHTYPE" speed="13.51" pos="1.91" lane="-VODUGES_beg_0" slope="0.00"/>
        <vehicle id="overtaking" x="37.40" y="-1.65" angle="90.00" type="DEFAULT_VEHTYPE" speed="0.00" pos="37.40" lane="VODUGES_beg_0" slope="0.00"/>
        <vehicle id="stopped" x="62.75" y="-1.65" angle="90.00" type="DEFAULT_VEHTYPE" speed="0.00" pos="8.00" lane="VODUGES_end_0" slope="0.00"/>
        <vehicle id="stopped2" x="44.90" y="-1.65" angle="90.00" type="DEFAULT_VEHTYPE" speed="0.00" pos="44.90" lane="VODUGES_beg_0" slope="0.00"/>
    </timestep>
    <timestep time="19.00">
        <vehicle id="oncoming2" x="4.29" y="1.65" angle="270.00" type="DEFAULT_VEHTYPE" speed="13.61" pos="40.96" lane="-VODUGES_beg_0" slope="0.00"/>
        <vehicle id="oncoming3" x="30.08" y="1.65" angle="270.00" type="DEFAULT_VEHTYPE" speed="13.01" pos="15.17" lane="-VODUGES_beg_0" slope="0.00"/>
        <vehicle id="overtaking" x="37.40" y="-1.65" angle="90.00" type="DEFAULT_VEHTYPE" speed="0.00" pos="37.40" lane="VODUGES_beg_0" slope="0.00"/>
        <vehicle id="stopped" x="62.75" y="-1.65" angle="90.00" type="DEFAULT_VEHTYPE" speed="0.00" pos="8.00" lane="VODUGES_end_0" slope="0.00"/>
        <vehicle id="stopped2" x="44.90" y="-1.65" angle="90.00" type="DEFAULT_VEHTYPE" speed="0.00" pos="44.90" lane="VODUGES_beg_0" slope="0.00"/>
    </timestep>
    <timestep time="20.00">
        <vehicle id="oncoming3" x="17.17" y="1.65" angle="270.00" type="DEFAULT_VEHTYPE" speed="12.82" pos="28.08" lane="-VODUGES_beg_0" slope="0.00"/>
        <vehicle id="overtaking" x="37.40" y="1.65" angle="90.00" type="DEFAULT_VEHTYPE" speed="0.00" pos="7.85" lane="-VODUGES_beg_0" slope="0.00"/>
        <vehicle id="stopped" x="62.75" y="-1.65" angle="90.00" type="DEFAULT_VEHTYPE" speed="0.00" pos="8.00" lane="VODUGES_end_0" slope="0.00"/>
        <vehicle id="stopped2" x="44.90" y="-1.65" angle="90.00" type="DEFAULT_VEHTYPE" speed="0.00" pos="44.90" lane="VODUGES_beg_0" slope="0.00"/>
    </timestep>
    <timestep time="21.00">
        <vehicle id="oncoming3" x="4.45" y="1.65" angle="270.00" type="DEFAULT_VEHTYPE" speed="12.62" pos="40.80" lane="-VODUGES_beg_0" slope="0.00"/>
        <vehicle id="overtaking" x="38.68" y="1.65" angle="90.00" type="DEFAULT_VEHTYPE" speed="2.57" pos="6.57" lane="-VODUGES_beg_0" slope="0.00"/>
        <vehicle id="stopped" x="62.75" y="-1.65" angle="90.00" type="DEFAULT_VEHTYPE" speed="0.00" pos="8.00" lane="VODUGES_end_0" slope="0.00"/>
        <vehicle id="stopped2" x="44.90" y="-1.65" angle="90.00" type="DEFAULT_VEHTYPE" speed="0.00" pos="44.90" lane="VODUGES_beg_0" slope="0.00"/>
    </timestep>
    <timestep time="22.00">
        <vehicle id="overtaking" x="42.15" y="1.65" angle="90.00" type="DEFAULT_VEHTYPE" speed="4.36" pos="3.10" lane="-VODUGES_beg_0" slope="0.00"/>
        <vehicle id="stopped" x="62.75" y="-1.65" angle="90.00" type="DEFAULT_VEHTYPE" speed="0.00" pos="8.00" lane="VODUGES_end_0" slope="0.00"/>
        <vehicle id="stopped2" x="44.90" y="-1.65" angle="90.00" type="DEFAULT_VEHTYPE" speed="0.00" pos="44.90" lane="VODUGES_beg_0" slope="0.00"/>
    </timestep>
    <timestep time="23.00">
        <vehicle id="overtaking" x="47.53" y="1.65" angle="90.00" type="DEFAULT_VEHTYPE" speed="6.40" pos="7.22" lane=":C_3_0" slope="0.00"/>
        <vehicle id="stopped" x="62.75" y="-1.65" angle="90.00" type="DEFAULT_VEHTYPE" speed="0.00" pos="8.00" lane="VODUGES_end_0" slope="0.00"/>
        <vehicle id="stopped2" x="44.90" y="-1.65" angle="90.00" type="DEFAULT_VEHTYPE" speed="0.00" pos="44.90" lane="VODUGES_beg_0" slope="0.00"/>
    </timestep>
    <timestep time="24.00">
        <vehicle id="overtaking" x="54.66" y="1.65" angle="90.00" type="DEFAULT_VEHTYPE" speed="7.87" pos="0.09" lane=":C_3_0" slope="0.00"/>
        <vehicle id="stopped" x="62.75" y="-1.65" angle="90.00" type="DEFAULT_VEHTYPE" speed="0.00" pos="8.00" lane="VODUGES_end_0" slope="0.00"/>
        <vehicle id="stopped2" x="44.90" y="-1.65" angle="90.00" type="DEFAULT_VEHTYPE" speed="0.00" pos="44.90" lane="VODUGES_beg_0" slope="0.00"/>
    </timestep>
    <timestep time="25.00">
        <vehicle id="overtaking" x="63.64" y="1.65" angle="90.00" type="DEFAULT_VEHTYPE" speed="10.08" pos="131.61" lane="-VODUGES_end_0" slope="0.00"/>
        <vehicle id="stopped" x="62.75" y="-1.65" angle="90.00" type="DEFAULT_VEHTYPE" speed="0.00" pos="8.00" lane="VODUGES_end_0" slope="0.00"/>
        <vehicle id="stopped2" x="44.90" y="-1.65" angle="90.00" type="DEFAULT_VEHTYPE" speed="0.00" pos="44.90" lane="VODUGES_beg_0" slope="0.00"/>
    </timestep>
    <timestep time="26.00">
        <vehicle id="overtaking" x="74.56" y="-1.65" angle="90.00" type="DEFAULT_VEHTYPE" speed="11.77" pos="19.81" lane="VODUGES_end_0" slope="0.00"/>
        <vehicle id="stopped" x="62.75" y="-1.65" angle="90.00" type="DEFAULT_VEHTYPE" speed="0.00" pos="8.00" lane="VODUGES_end_0" slope="0.00"/>
        <vehicle id="stopped2" x="44.90" y="-1.65" angle="90.00" type="DEFAULT_VEHTYPE" speed="0.00" pos="44.90" lane="VODUGES_beg_0" slope="0.00"/>
    </timestep>
    <timestep time="27.00">
        <vehicle id="overtaking" x="86.97" y="-1.65" angle="90.00" type="DEFAULT_VEHTYPE" speed="13.03" pos="32.22" lane="VODUGES_end_0" slope="0.00"/>
        <vehicle id="stopped" x="62.75" y="-1.65" angle="90.00" type="DEFAULT_VEHTYPE" speed="0.00" pos="8.00" lane="VODUGES_end_0" slope="0.00"/>
        <vehicle id="stopped2" x="44.90" y="-1.65" angle="90.00" type="DEFAULT_VEHTYPE" speed="0.00" pos="44.90" lane="VODUGES_beg_0" slope="0.00"/>
    </timestep>
    <timestep time="28.00">
        <vehicle id="overtaking" x="99.96" y="-1.65" angle="90.00" type="DEFAULT_VEHTYPE" speed="12.96" pos="45.21" lane="VODUGES_end_0" slope="0.00"/>
        <vehicle id="stopped" x="62.75" y="-1.65" angle="90.00" type="DEFAULT_VEHTYPE" speed="0.00" pos="8.00" lane="VODUGES_end_0" slope="0.00"/>
        <vehicle id="stopped2" x="44.90" y="-1.65" angle="90.00" type="DEFAULT_VEHTYPE" speed="0.00" pos="44.90" lane="VODUGES_beg_0" slope="0.00"/>
    </timestep>
    <timestep time="29.00">
        <vehicle id="overtaking" x="113.30" y="-1.65" angle="90.00" type="DEFAULT_VEHTYPE" speed="13.71" pos="58.55" lane="VODUGES_end_0" slope="0.00"/>
        <vehicle id="stopped" x="62.75" y="-1.65" angle="90.00" type="DEFAULT_VEHTYPE" speed="0.00" pos="8.00" lane="VODUGES_end_0" slope="0.00"/>
        <vehicle id="stopped2" x="44.90" y="-1.65" angle="90.00" type="DEFAULT_VEHTYPE" speed="0.00" pos="44.90" lane="VODUGES_beg_0" slope="0.00"/>
    </timestep>
    <timestep time="30.00">
        <vehicle id="overtaking" x="126.78" y="-1.65" angle="90.00" type="DEFAULT_VEHTYPE" speed="13.27" pos="72.03" lane="VODUGES_end_0" slope="0.00"/>
        <vehicle id="stopped" x="62.75" y="-1.65" angle="90.00" type="DEFAULT_VEHTYPE" speed="0.00" pos="8.00" lane="VODUGES_end_0" slope="0.00"/>
        <vehicle id="stopped2" x="44.90" y="-1.65" angle="90.00" type="DEFAULT_VEHTYPE" speed="0.00" pos="44.90" lane="VODUGES_beg_0" slope="0.00"/>
    </timestep>
    <timestep time="31.00">
        <vehicle id="overtaking" x="139.92" y="-1.65" angle="90.00" type="DEFAULT_VEHTYPE" speed="13.01" pos="85.17" lane="VODUGES_end_0" slope="0.00"/>
        <vehicle id="stopped" x="62.75" y="-1.65" angle="90.00" type="DEFAULT_VEHTYPE" speed="0.00" pos="8.00" lane="VODUGES_end_0" slope="0.00"/>
        <vehicle id="stopped2" x="44.90" y="-1.65" angle="90.00" type="DEFAULT_VEHTYPE" speed="0.00" pos="44.90" lane="VODUGES_beg_0" slope="0.00"/>
    </timestep>
    <timestep time="32.00">
        <vehicle id="overtaking" x="153.27" y="-1.65" angle="90.00" type="DEFAULT_VEHTYPE" speed="13.69" pos="98.52" lane="VODUGES_end_0" slope="0.00"/>
        <vehicle id="stopped" x="62.75" y="-1.65" angle="90.00" type="DEFAULT_VEHTYPE" speed="0.00" pos="8.00" lane="VODUGES_end_0" slope="0.00"/>
        <vehicle id="stopped2" x="44.90" y="-1.65" angle="90.00" type="DEFAULT_VEHTYPE" speed="0.00" pos="44.90" lane="VODUGES_beg_0" slope="0.00"/>
    </timestep>
    <timestep time="33.00">
        <vehicle id="overtaking" x="166.63" y="-1.65" angle="90.00" type="DEFAULT_VEHTYPE" speed="13.03" pos="111.88" lane="VODUGES_end_0" slope="0.00"/>
        <vehicle id="stopped" x="62.75" y="-1.65" angle="90.00" type="DEFAULT_VEHTYPE" speed="0.00" pos="8.00" lane="VODUGES_end_0" slope="0.00"/>
        <vehicle id="stopped2" x="44.90" y="-1.65" angle="90.00" type="DEFAULT_VEHTYPE" speed="0.00" pos="44.90" lane="VODUGES_beg_0" slope="0.00"/>
    </timestep>
    <timestep time="34.00">
        <vehicle id="overtaking" x="179.91" y="-1.65" angle="90.00" type="DEFAULT_VEHTYPE" speed="13.53" pos="125.16" lane="VODUGES_end_0" slope="0.00"/>
        <vehicle id="stopped" x="62.75" y="-1.65" angle="90.00" type="DEFAULT_VEHTYPE" speed="0.00" pos="8.00" lane="VODUGES_end_0" slope="0.00"/>
        <vehicle id="stopped2" x="44.90" y="-1.65" angle="90.00" type="DEFAULT_VEHTYPE" speed="0.00" pos="44.90" lane="VODUGES_beg_0" slope="0.00"/>
    </timestep>
    <timestep time="35.00">
        <vehicle id="overtaking" x="193.24" y="-1.65" angle="90.00" type="DEFAULT_VEHTYPE" speed="13.12" pos="138.49" lane="VODUGES_end_0" slope="0.00"/>
        <vehicle id="stopped" x="62.75" y="-1.65" angle="90.00" type="DEFAULT_VEHTYPE" speed="0.00" pos="8.00" lane="VODUGES_end_0" slope="0.00"/>
        <vehicle id="stopped2" x="44.90" y="-1.65" angle="90.00" type="DEFAULT_VEHTYPE" speed="0.00" pos="44.90" lane="VODUGES_beg_0" slope="0.00"/>
    </timestep>
    <timestep time="36.00">
        <vehicle id="stopped" x="62.75" y="-1.65" angle="90.00" type="DEFAULT_VEHTYPE" speed="0.00" pos="8.00" lane="VODUGES_end_0" slope="0.00"/>
        <vehicle id="stopped2" x="44.90" y="-1.65" angle="90.00" type="DEFAULT_VEHTYPE" speed="0.00" pos="44.90" lane="VODUGES_beg_0" slope="0.00"/>
    </timestep>
    <timestep time="37.00">
        <vehicle id="stopped" x="62.75" y="-1.65" angle="90.00" type="DEFAULT_VEHTYPE" speed="0.00" pos="8.00" lane="VODUGES_end_0" slope="0.00"/>
        <vehicle id="stopped2" x="44.90" y="-1.65" angle="90.00" type="DEFAULT_VEHTYPE" speed="0.00" pos="44.90" lane="VODUGES_beg_0" slope="0.00"/>
    </timestep>
    <timestep time="38.00">
        <vehicle id="stopped" x="62.75" y="-1.65" angle="90.00" type="DEFAULT_VEHTYPE" speed="0.00" pos="8.00" lane="VODUGES_end_0" slope="0.00"/>
        <vehicle id="stopped2" x="44.90" y="-1.65" angle="90.00" type="DEFAULT_VEHTYPE" speed="0.00" pos="44.90" lane="VODUGES_beg_0" slope="0.00"/>
    </timestep>
    <timestep time="39.00">
        <vehicle id="stopped" x="62.75" y="-1.65" angle="90.00" type="DEFAULT_VEHTYPE" speed="0.00" pos="8.00" lane="VODUGES_end_0" slope="0.00"/>
        <vehicle id="stopped2" x="44.90" y="-1.65" angle="90.00" type="DEFAULT_VEHTYPE" speed="0.00" pos="44.90" lane="VODUGES_beg_0" slope="0.00"/>
    </timestep>
    <timestep time="40.00">
        <vehicle id="stopped" x="62.75" y="-1.65" angle="90.00" type="DEFAULT_VEHTYPE" speed="0.00" pos="8.00" lane="VODUGES_end_0" slope="0.00"/>
        <vehicle id="stopped2" x="44.90" y="-1.65" angle="90.00" type="DEFAULT_VEHTYPE" speed="0.00" pos="44.90" lane="VODUGES_beg_0" slope="0.00"/>
    </timestep>
    <timestep time="41.00">
        <vehicle id="stopped" x="62.75" y="-1.65" angle="90.00" type="DEFAULT_VEHTYPE" speed="0.00" pos="8.00" lane="VODUGES_end_0" slope="0.00"/>
        <vehicle id="stopped2" x="44.90" y="-1.65" angle="90.00" type="DEFAULT_VEHTYPE" speed="0.00" pos="44.90" lane="VODUGES_beg_0" slope="0.00"/>
    </timestep>
    <timestep time="42.00">
        <vehicle id="stopped" x="62.75" y="-1.65" angle="90.00" type="DEFAULT_VEHTYPE" speed="0.00" pos="8.00" lane="VODUGES_end_0" slope="0.00"/>
        <vehicle id="stopped2" x="44.90" y="-1.65" angle="90.00" type="DEFAULT_VEHTYPE" speed="0.00" pos="44.90" lane="VODUGES_beg_0" slope="0.00"/>
    </timestep>
    <timestep time="43.00">
        <vehicle id="stopped" x="62.75" y="-1.65" angle="90.00" type="DEFAULT_VEHTYPE" speed="0.00" pos="8.00" lane="VODUGES_end_0" slope="0.00"/>
        <vehicle id="stopped2" x="44.90" y="-1.65" angle="90.00" type="DEFAULT_VEHTYPE" speed="0.00" pos="44.90" lane="VODUGES_beg_0" slope="0.00"/>
    </timestep>
    <timestep time="44.00">
        <vehicle id="stopped" x="62.75" y="-1.65" angle="90.00" type="DEFAULT_VEHTYPE" speed="0.00" pos="8.00" lane="VODUGES_end_0" slope="0.00"/>
        <vehicle id="stopped2" x="44.90" y="-1.65" angle="90.00" type="DEFAULT_VEHTYPE" speed="0.00" pos="44.90" lane="VODUGES_beg_0" slope="0.00"/>
    </timestep>
    <timestep time="45.00">
        <vehicle id="stopped" x="62.75" y="-1.65" angle="90.00" type="DEFAULT_VEHTYPE" speed="0.00" pos="8.00" lane="VODUGES_end_0" slope="0.00"/>
        <vehicle id="stopped2" x="44.90" y="-1.65" angle="90.00" type="DEFAULT_VEHTYPE" speed="0.00" pos="44.90" lane="VODUGES_beg_0" slope="0.00"/>
    </timestep>
    <timestep time="46.00">
        <vehicle id="stopped" x="62.75" y="-1.65" angle="90.00" type="DEFAULT_VEHTYPE" speed="0.00" pos="8.00" lane="VODUGES_end_0" slope="0.00"/>
        <vehicle id="stopped2" x="44.90" y="-1.65" angle="90.00" type="DEFAULT_VEHTYPE" speed="0.00" pos="44.90" lane="VODUGES_beg_0" slope="0.00"/>
    </timestep>
    <timestep time="47.00">
        <vehicle id="stopped" x="62.75" y="-1.65" angle="90.00" type="DEFAULT_VEHTYPE" speed="0.00" pos="8.00" lane="VODUGES_end_0" slope="0.00"/>
        <vehicle id="stopped2" x="44.90" y="-1.65" angle="90.00" type="DEFAULT_VEHTYPE" speed="0.00" pos="44.90" lane="VODUGES_beg_0" slope="0.00"/>
    </timestep>
    <timestep time="48.00">
        <vehicle id="stopped" x="62.75" y="-1.65" angle="90.00" type="DEFAULT_VEHTYPE" speed="0.00" pos="8.00" lane="VODUGES_end_0" slope="0.00"/>
        <vehicle id="stopped2" x="44.90" y="-1.65" angle="90.00" type="DEFAULT_VEHTYPE" speed="0.00" pos="44.90" lane="VODUGES_beg_0" slope="0.00"/>
    </timestep>
    <timestep time="49.00">
        <vehicle id="stopped" x="62.75" y="-1.65" angle="90.00" type="DEFAULT_VEHTYPE" speed="0.00" pos="8.00" lane="VODUGES_end_0" slope="0.00"/>
        <vehicle id="stopped2" x="44.90" y="-1.65" angle="90.00" type="DEFAULT_VEHTYPE" speed="0.00" pos="44.90" lane="VODUGES_beg_0" slope="0.00"/>
    </timestep>
    <timestep time="50.00">
        <vehicle id="stopped" x="62.75" y="-1.65" angle="90.00" type="DEFAULT_VEHTYPE" speed="0.00" pos="8.00" lane="VODUGES_end_0" slope="0.00"/>
        <vehicle id="stopped2" x="44.90" y="-1.65" angle="90.00" type="DEFAULT_VEHTYPE" speed="0.00" pos="44.90" lane="VODUGES_beg_0" slope="0.00"/>
    </timestep>
    <timestep time="51.00">
        <vehicle id="stopped" x="62.75" y="-1.65" angle="90.00" type="DEFAULT_VEHTYPE" speed="0.00" pos="8.00" lane="VODUGES_end_0" slope="0.00"/>
        <vehicle id="stopped2" x="44.90" y="-1.65" angle="90.00" type="DEFAULT_VEHTYPE" speed="0.00" pos="44.90" lane="VODUGES_beg_0" slope="0.00"/>
    </timestep>
    <timestep time="52.00">
        <vehicle id="stopped" x="62.75" y="-1.65" angle="90.00" type="DEFAULT_VEHTYPE" speed="0.00" pos="8.00" lane="VODUGES_end_0" slope="0.00"/>