<?xml version="1.0" encoding="UTF-8"?>

<!-- generated on Fri Oct 16 13:50:36 2015 by SUMO Version dev-SVN-r19063
<?xml version="1.0" encoding="UTF-8"?>

<configuration xmlns:xsi="http://www.w3.org/2001/XMLSchema-instance" xsi:noNamespaceSchemaLocation="http://sumo.dlr.de/xsd/sumoConfiguration.xsd">

    <input>
        <net-file value="net.net.xml"/>
        <route-files value="input_routes.rou.xml"/>
    </input>

    <output>
        <fcd-output value="fcd.xml"/>
        <tripinfo-output value="tripinfos.xml"/>
    </output>

    <processing>
        <lateral-resolution value="1.1"/>
    </processing>

    <report>
        <xml-validation value="never"/>
        <no-step-log value="true"/>
    </report>

</configuration>
-->

<fcd-export xmlns:xsi="http://www.w3.org/2001/XMLSchema-instance" xsi:noNamespaceSchemaLocation="http://sumo.dlr.de/xsd/fcd_file.xsd">
    <timestep time="0.00">
        <vehicle id="moped.0" x="2.20" y="-4.44" angle="90.00" type="moped" speed="0.00" pos="2.20" lane="beg_0" slope="0.00"/>
    </timestep>
    <timestep time="1.00">
        <vehicle id="moped.0" x="3.27" y="-4.44" angle="90.00" type="moped" speed="1.07" pos="3.27" lane="beg_0" slope="0.00"/>
        <vehicle id="moped.1" x="2.20" y="-1.43" angle="90.00" type="moped" speed="0.00" pos="2.20" lane="beg_1" slope="0.00"/>
    </timestep>
    <timestep time="2.00">
        <vehicle id="moped.0" x="5.04" y="-4.44" angle="90.00" type="moped" speed="1.77" pos="5.04" lane="beg_0" slope="0.00"/>
        <vehicle id="moped.1" x="3.28" y="-1.43" angle="90.00" type="moped" speed="1.08" pos="3.28" lane="beg_1" slope="0.00"/>
    </timestep>
    <timestep time="3.00">
        <vehicle id="moped.0" x="7.90" y="-4.44" angle="90.00" type="moped" speed="2.86" pos="7.90" lane="beg_0" slope="0.00"/>
        <vehicle id="moped.1" x="5.04" y="-1.43" angle="90.00" type="moped" speed="1.77" pos="5.04" lane="beg_1" slope="0.00"/>
    </timestep>
    <timestep time="4.00">
        <vehicle id="moped.0" x="11.56" y="-4.44" angle="90.00" type="moped" speed="3.65" pos="11.56" lane="beg_0" slope="0.00"/>
        <vehicle id="moped.1" x="7.66" y="-1.43" angle="90.00" type="moped" speed="2.62" pos="7.66" lane="beg_1" slope="0.00"/>
        <vehicle id="moped.2" x="2.20" y="-2.71" angle="90.00" type="moped" speed="0.00" pos="2.20" lane="beg_1" slope="0.00"/>
    </timestep>
    <timestep time="5.00">
        <vehicle id="moped.0" x="16.02" y="-4.44" angle="90.00" type="moped" speed="4.47" pos="16.02" lane="beg_0" slope="0.00"/>
        <vehicle id="moped.1" x="11.00" y="-1.43" angle="90.00" type="moped" speed="3.34" pos="11.00" lane="beg_1" slope="0.00"/>
        <vehicle id="moped.2" x="3.27" y="-2.71" angle="90.00" type="moped" speed="1.07" pos="3.27" lane="beg_1" slope="0.00"/>
        <vehicle id="moped.3" x="2.20" y="-4.63" angle="90.00" type="moped" speed="0.00" pos="2.20" lane="beg_0" slope="0.00"/>
    </timestep>
    <timestep time="6.00">
        <vehicle id="moped.0" x="21.29" y="-4.44" angle="90.00" type="moped" speed="5.27" pos="21.29" lane="beg_0" slope="0.00"/>
        <vehicle id="moped.1" x="14.95" y="-1.43" angle="90.00" type="moped" speed="3.95" pos="14.95" lane="beg_1" slope="0.00"/>
        <vehicle id="moped.2" x="5.23" y="-2.71" angle="90.00" type="moped" speed="1.96" pos="5.23" lane="beg_1" slope="0.00"/>
        <vehicle id="moped.3" x="3.17" y="-4.63" angle="90.00" type="moped" speed="0.97" pos="3.17" lane="beg_0" slope="0.00"/>
    </timestep>
    <timestep time="7.00">
        <vehicle id="moped.0" x="27.14" y="-4.44" angle="90.00" type="moped" speed="5.84" pos="27.14" lane="beg_0" slope="0.00"/>
        <vehicle id="moped.1" x="19.59" y="-1.43" angle="90.00" type="moped" speed="4.63" pos="19.59" lane="beg_1" slope="0.00"/>
        <vehicle id="moped.2" x="8.20" y="-2.71" angle="90.00" type="moped" speed="2.97" pos="8.20" lane="beg_1" slope="0.00"/>
        <vehicle id="moped.3" x="5.22" y="-4.63" angle="90.00" type="moped" speed="2.05" pos="5.22" lane="beg_0" slope="0.00"/>
    </timestep>
    <timestep time="8.00">
        <vehicle id="moped.0" x="33.86" y="-4.44" angle="90.00" type="moped" speed="6.72" pos="33.86" lane="beg_0" slope="0.00"/>
        <vehicle id="moped.1" x="25.25" y="-1.43" angle="90.00" type="moped" speed="5.66" pos="25.25" lane="beg_1" slope="0.00"/>
        <vehicle id="moped.2" x="12.20" y="-2.71" angle="90.00" type="moped" speed="4.00" pos="12.20" lane="beg_1" slope="0.00"/>
        <vehicle id="moped.3" x="7.85" y="-4.63" angle="90.00" type="moped" speed="2.62" pos="7.85" lane="beg_0" slope="0.00"/>
        <vehicle id="moped.4" x="2.20" y="-5.61" angle="90.00" type="moped" speed="0.00" pos="2.20" lane="beg_0" slope="0.00"/>
        <vehicle id="moped.5" x="2.20" y="-1.48" angle="90.00" type="moped" speed="0.00" pos="2.20" lane="beg_1" slope="0.00"/>
    </timestep>
    <timestep time="9.00">
        <vehicle id="moped.0" x="41.35" y="-4.44" angle="90.00" type="moped" speed="7.49" pos="41.35" lane="beg_0" slope="0.00"/>
        <vehicle id="moped.1" x="31.96" y="-1.43" angle="90.00" type="moped" speed="6.71" pos="31.96" lane="beg_1" slope="0.00"/>
        <vehicle id="moped.2" x="16.93" y="-2.71" angle="90.00" type="moped" speed="4.73" pos="16.93" lane="beg_1" slope="0.00"/>
        <vehicle id="moped.3" x="11.19" y="-4.63" angle="90.00" type="moped" speed="3.34" pos="11.19" lane="beg_0" slope="0.00"/>
        <vehicle id="moped.4" x="2.76" y="-5.61" angle="90.00" type="moped" speed="0.56" pos="2.76" lane="beg_0" slope="0.00"/>
        <vehicle id="moped.5" x="2.91" y="-1.48" angle="90.00" type="moped" speed="0.71" pos="2.91" lane="beg_1" slope="0.00"/>
    </timestep>
    <timestep time="10.00">
        <vehicle id="moped.0" x="49.41" y="-4.44" angle="90.00" type="moped" speed="8.06" pos="49.41" lane="beg_0" slope="0.00"/>
        <vehicle id="moped.1" x="39.50" y="-1.43" angle="90.00" type="moped" speed="7.54" pos="39.50" lane="beg_1" slope="0.00"/>
        <vehicle id="moped.2" x="22.45" y="-2.71" angle="90.00" type="moped" speed="5.51" pos="22.45" lane="beg_1" slope="0.00"/>
        <vehicle id="moped.3" x="15.53" y="-4.63" angle="90.00" type="moped" speed="4.34" pos="15.53" lane="beg_0" slope="0.00"/>
        <vehicle id="moped.4" x="4.06" y="-5.61" angle="90.00" type="moped" speed="1.30" pos="4.06" lane="beg_0" slope="0.00"/>
        <vehicle id="moped.5" x="4.62" y="-1.48" angle="90.00" type="moped" speed="1.71" pos="4.62" lane="beg_1" slope="0.00"/>
    </timestep>
    <timestep time="11.00">
        <vehicle id="moped.0" x="58.54" y="-4.44" angle="90.00" type="moped" speed="9.13" pos="58.54" lane="beg_0" slope="0.00"/>
        <vehicle id="moped.1" x="47.99" y="-1.43" angle="90.00" type="moped" speed="8.49" pos="47.99" lane="beg_1" slope="0.00"/>
        <vehicle id="moped.2" x="28.76" y="-2.71" angle="90.00" type="moped" speed="6.31" pos="28.76" lane="beg_1" slope="0.00"/>
        <vehicle id="moped.3" x="20.87" y="-4.63" angle="90.00" type="moped" speed="5.34" pos="20.87" lane="beg_0" slope="0.00"/>
        <vehicle id="moped.4" x="5.92" y="-5.61" angle="90.00" type="moped" speed="1.86" pos="5.92" lane="beg_0" slope="0.00"/>
        <vehicle id="moped.5" x="6.92" y="-1.48" angle="90.00" type="moped" speed="2.30" pos="6.92" lane="beg_1" slope="0.00"/>
    </timestep>
    <timestep time="12.00">
        <vehicle id="moped.0" x="68.67" y="-4.44" angle="90.00" type="moped" speed="10.13" pos="68.67" lane="beg_0" slope="0.00"/>
        <vehicle id="moped.1" x="57.53" y="-1.43" angle="90.00" type="moped" speed="9.54" pos="57.53" lane="beg_1" slope="0.00"/>
        <vehicle id="moped.2" x="35.86" y="-2.71" angle="90.00" type="moped" speed="7.10" pos="35.86" lane="beg_1" slope="0.00"/>
        <vehicle id="moped.3" x="27.29" y="-4.63" angle="90.00" type="moped" speed="6.42" pos="27.29" lane="beg_0" slope="0.00"/>
        <vehicle id="moped.4" x="8.83" y="-5.61" angle="90.00" type="moped" speed="2.91" pos="8.83" lane="beg_0" slope="0.00"/>
        <vehicle id="moped.5" x="10.21" y="-1.48" angle="90.00" type="moped" speed="3.29" pos="10.21" lane="beg_1" slope="0.00"/>
        <vehicle id="moped.6" x="2.20" y="-5.31" angle="90.00" type="moped" speed="0.00" pos="2.20" lane="beg_0" slope="0.00"/>
        <vehicle id="moped.7" x="2.20" y="-2.34" angle="90.00" type="moped" speed="0.00" pos="2.20" lane="beg_1" slope="0.00"/>
    </timestep>
    <timestep time="13.00">
        <vehicle id="moped.0" x="79.57" y="-4.44" angle="90.00" type="moped" speed="10.91" pos="79.57" lane="beg_0" slope="0.00"/>
        <vehicle id="moped.1" x="67.84" y="-1.43" angle="90.00" type="moped" speed="10.30" pos="67.84" lane="beg_1" slope="0.00"/>
        <vehicle id="moped.2" x="43.85" y="-2.71" angle="90.00" type="moped" speed="7.99" pos="43.85" lane="beg_1" slope="0.00"/>
        <vehicle id="moped.3" x="34.58" y="-4.63" angle="90.00" type="moped" speed="7.29" pos="34.58" lane="beg_0" slope="0.00"/>
        <vehicle id="moped.4" x="12.64" y="-5.61" angle="90.00" type="moped" speed="3.81" pos="12.64" lane="beg_0" slope="0.00"/>
        <vehicle id="moped.5" x="14.32" y="-1.48" angle="90.00" type="moped" speed="4.11" pos="14.32" lane="beg_1" slope="0.00"/>
        <vehicle id="moped.6" x="2.76" y="-5.31" angle="90.00" type="moped" speed="0.56" pos="2.76" lane="beg_0" slope="0.00"/>
        <vehicle id="moped.7" x="2.85" y="-2.34" angle="90.00" type="moped" speed="0.65" pos="2.85" lane="beg_1" slope="0.00"/>
    </timestep>
    <timestep time="14.00">
        <vehicle id="moped.0" x="91.31" y="-4.44" angle="90.00" type="moped" speed="11.74" pos="91.31" lane="beg_0" slope="0.00"/>
        <vehicle id="moped.1" x="79.10" y="-1.43" angle="90.00" type="moped" speed="11.26" pos="79.10" lane="beg_1" slope="0.00"/>
        <vehicle id="moped.2" x="52.45" y="-2.71" angle="90.00" type="moped" speed="8.60" pos="52.45" lane="beg_1" slope="0.00"/>
        <vehicle id="moped.3" x="42.73" y="-4.63" angle="90.00" type="moped" speed="8.15" pos="42.73" lane="beg_0" slope="0.00"/>
        <vehicle id="moped.4" x="17.17" y="-5.61" angle="90.00" type="moped" speed="4.52" pos="17.17" lane="beg_0" slope="0.00"/>
        <vehicle id="moped.5" x="19.18" y="-1.48" angle="90.00" type="moped" speed="4.86" pos="19.18" lane="beg_1" slope="0.00"/>
        <vehicle id="moped.6" x="4.17" y="-5.31" angle="90.00" type="moped" speed="1.41" pos="4.17" lane="beg_0" slope="0.00"/>
        <vehicle id="moped.7" x="4.08" y="-2.34" angle="90.00" type="moped" speed="1.24" pos="4.08" lane="beg_1" slope="0.00"/>
    </timestep>
    <timestep time="15.00">
        <vehicle id="moped.0" x="103.76" y="-4.44" angle="90.00" type="moped" speed="12.45" pos="103.76" lane="beg_0" slope="0.00"/>
        <vehicle id="moped.1" x="89.88" y="-1.43" angle="90.00" type="moped" speed="10.78" pos="89.88" lane="beg_1" slope="0.00"/>
        <vehicle id="moped.2" x="61.99" y="-2.71" angle="90.00" type="moped" speed="9.54" pos="61.99" lane="beg_1" slope="0.00"/>
        <vehicle id="moped.3" x="51.93" y="-4.63" angle="90.00" type="moped" speed="9.20" pos="51.93" lane="beg_0" slope="0.00"/>
        <vehicle id="moped.4" x="22.53" y="-5.61" angle="90.00" type="moped" speed="5.37" pos="22.53" lane="beg_0" slope="0.00"/>
        <vehicle id="moped.5" x="24.92" y="-1.48" angle="90.00" type="moped" speed="5.74" pos="24.92" lane="beg_1" slope="0.00"/>
        <vehicle id="moped.6" x="6.32" y="-5.31" angle="90.00" type="moped" speed="2.15" pos="6.32" lane="beg_0" slope="0.00"/>
        <vehicle id="moped.7" x="6.23" y="-2.34" angle="90.00" type="moped" speed="2.15" pos="6.23" lane="beg_1" slope="0.00"/>
    </timestep>
    <timestep time="16.00">
        <vehicle id="moped.0" x="116.82" y="-4.44" angle="90.00" type="moped" speed="13.07" pos="116.82" lane="beg_0" slope="0.00"/>
        <vehicle id="moped.1" x="100.81" y="-1.43" angle="90.00" type="moped" speed="10.93" pos="100.81" lane="beg_1" slope="0.00"/>
        <vehicle id="moped.2" x="72.57" y="-2.71" angle="90.00" type="moped" speed="10.57" pos="72.57" lane="beg_1" slope="0.00"/>
        <vehicle id="moped.3" x="62.03" y="-4.63" angle="90.00" type="moped" speed="10.09" pos="62.03" lane="beg_0" slope="0.00"/>
        <vehicle id="moped.4" x="28.73" y="-5.61" angle="90.00" type="moped" speed="6.20" pos="28.73" lane="beg_0" slope="0.00"/>
        <vehicle id="moped.5" x="31.37" y="-1.48" angle="90.00" type="moped" speed="6.45" pos="31.37" lane="beg_1" slope="0.00"/>
        <vehicle id="moped.6" x="9.55" y="-5.31" angle="90.00" type="moped" speed="3.22" pos="9.55" lane="beg_0" slope="0.00"/>
        <vehicle id="moped.7" x="9.40" y="-2.34" angle="90.00" type="moped" speed="3.17" pos="9.40" lane="beg_1" slope="0.00"/>
        <vehicle id="moped.8" x="2.20" y="-4.53" angle="90.00" type="moped" speed="0.00" pos="2.20" lane="beg_0" slope="0.00"/>
        <vehicle id="moped.9" x="2.20" y="-0.82" angle="90.00" type="moped" speed="0.00" pos="2.20" lane="beg_1" slope="0.00"/>
    </timestep>
    <timestep time="17.00">
        <vehicle id="moped.0" x="130.78" y="-4.44" angle="90.00" type="moped" speed="13.96" pos="130.78" lane="beg_0" slope="0.00"/>
        <vehicle id="moped.1" x="111.94" y="-1.43" angle="90.00" type="moped" speed="11.13" pos="111.94" lane="beg_1" slope="0.00"/>
        <vehicle id="moped.2" x="83.88" y="-2.71" angle="90.00" type="moped" speed="11.31" pos="83.88" lane="beg_1" slope="0.00"/>
        <vehicle id="moped.3" x="72.85" y="-4.63" angle="90.00" type="moped" speed="10.82" pos="72.85" lane="beg_0" slope="0.00"/>
        <vehicle id="moped.4" x="35.71" y="-5.61" angle="90.00" type="moped" speed="6.98" pos="35.71" lane="beg_0" slope="0.00"/>
        <vehicle id="moped.5" x="37.98" y="-1.48" angle="90.00" type="moped" speed="6.61" pos="37.98" lane="beg_1" slope="0.00"/>
        <vehicle id="moped.6" x="13.56" y="-5.31" angle="90.00" type="moped" speed="4.01" pos="13.56" lane="beg_0" slope="0.00"/>
        <vehicle id="moped.7" x="13.35" y="-2.34" angle="90.00" type="moped" speed="3.95" pos="13.35" lane="beg_1" slope="0.00"/>
        <vehicle id="moped.8" x="3.24" y="-4.53" angle="90.00" type="moped" speed="1.04" pos="3.24" lane="beg_0" slope="0.00"/>
        <vehicle id="moped.9" x="3.15" y="-0.82" angle="90.00" type="moped" speed="0.95" pos="3.15" lane="beg_1" slope="0.00"/>
    </timestep>
    <timestep time="18.00">
        <vehicle id="moped.0" x="145.35" y="-4.44" angle="90.00" type="moped" speed="14.57" pos="145.35" lane="beg_0" slope="0.00"/>
        <vehicle id="moped.1" x="122.81" y="-1.43" angle="90.00" type="moped" speed="10.87" pos="122.81" lane="beg_1" slope="0.00"/>
        <vehicle id="moped.2" x="95.76" y="-2.71" angle="90.00" type="moped" speed="11.89" pos="95.76" lane="beg_1" slope="0.00"/>
        <vehicle id="moped.3" x="84.50" y="-4.63" angle="90.00" type="moped" speed="11.65" pos="84.50" lane="beg_0" slope="0.00"/>
        <vehicle id="moped.4" x="43.29" y="-5.61" angle="90.00" type="moped" speed="7.58" pos="43.29" lane="beg_0" slope="0.00"/>
        <vehicle id="moped.5" x="44.53" y="-1.48" angle="90.00" type="moped" speed="6.55" pos="44.53" lane="beg_1" slope="0.00"/>
        <vehicle id="moped.6" x="18.57" y="-5.31" angle="90.00" type="moped" speed="5.02" pos="18.57" lane="beg_0" slope="0.00"/>
        <vehicle id="moped.7" x="18.39" y="-2.34" angle="90.00" type="moped" speed="5.04" pos="18.39" lane="beg_1" slope="0.00"/>
        <vehicle id="moped.8" x="5.20" y="-4.53" angle="90.00" type="moped" speed="1.95" pos="5.20" lane="beg_0" slope="0.00"/>
        <vehicle id="moped.9" x="4.66" y="-0.82" angle="90.00" type="moped" speed="1.51" pos="4.66" lane="beg_1" slope="0.00"/>
    </timestep>
    <timestep time="19.00">
        <vehicle id="moped.0" x="160.75" y="-4.44" angle="90.00" type="moped" speed="15.40" pos="160.75" lane="beg_0" slope="0.00"/>
        <vehicle id="moped.1" x="133.94" y="-1.43" angle="90.00" type="moped" speed="11.13" pos="133.94" lane="beg_1" slope="0.00"/>
        <vehicle id="moped.10" x="2.20" y="-1.91" angle="90.00" type="moped" speed="0.00" pos="2.20" lane="beg_1" slope="0.00"/>
        <vehicle id="moped.2" x="108.75" y="-2.71" angle="90.00" type="moped" speed="12.99" pos="108.75" lane="beg_1" slope="0.00"/>
        <vehicle id="moped.3" x="96.75" y="-4.63" angle="90.00" type="moped" speed="12.25" pos="96.75" lane="beg_0" slope="0.00"/>
        <vehicle id="moped.4" x="51.74" y="-5.61" angle="90.00" type="moped" speed="8.45" pos="51.74" lane="beg_0" slope="0.00"/>
        <vehicle id="moped.5" x="51.01" y="-1.48" angle="90.00" type="moped" speed="6.49" pos="51.01" lane="beg_1" slope="0.00"/>
        <vehicle id="moped.6" x="24.63" y="-5.31" angle="90.00" type="moped" speed="6.05" pos="24.63" lane="beg_0" slope="0.00"/>
        <vehicle id="moped.7" x="24.02" y="-2.34" angle="90.00" type="moped" speed="5.63" pos="24.02" lane="beg_1" slope="0.00"/>
        <vehicle id="moped.8" x="7.78" y="-4.53" angle="90.00" type="moped" speed="2.58" pos="7.78" lane="beg_0" slope="0.00"/>
        <vehicle id="moped.9" x="7.26" y="-0.82" angle="90.00" type="moped" speed="2.60" pos="7.26" lane="beg_1" slope="0.00"/>
    </timestep>
    <timestep time="20.00">
        <vehicle id="moped.0" x="177.06" y="-4.44" angle="90.00" type="moped" speed="16.30" pos="177.06" lane="beg_0" slope="0.00"/>
        <vehicle id="moped.1" x="144.74" y="-1.43" angle="90.00" type="moped" speed="10.80" pos="144.74" lane="beg_1" slope="0.00"/>
        <vehicle id="moped.10" x="2.61" y="-1.91" angle="90.00" type="moped" speed="0.41" pos="2.61" lane="beg_1" slope="0.00"/>
        <vehicle id="moped.2" x="122.41" y="-2.71" angle="90.00" type="moped" speed="13.66" pos="122.41" lane="beg_1" slope="0.00"/>
        <vehicle id="moped.3" x="109.86" y="-4.63" angle="90.00" type="moped" speed="13.11" pos="109.86" lane="beg_0" slope="0.00"/>
        <vehicle id="moped.4" x="61.12" y="-5.61" angle="90.00" type="moped" speed="9.37" pos="61.12" lane="beg_0" slope="0.00"/>
        <vehicle id="moped.5" x="57.61" y="-1.48" angle="90.00" type="moped" speed="6.59" pos="57.61" lane="beg_1" slope="0.00"/>
        <vehicle id="moped.6" x="31.38" y="-5.31" angle="90.00" type="moped" speed="6.76" pos="31.38" lane="beg_0" slope="0.00"/>
        <vehicle id="moped.7" x="30.29" y="-2.34" angle="90.00" type="moped" speed="6.27" pos="30.29" lane="beg_1" slope="0.00"/>
        <vehicle id="moped.8" x="11.22" y="-4.53" angle="90.00" type="moped" speed="3.44" pos="11.22" lane="beg_0" slope="0.00"/>
        <vehicle id="moped.9" x="10.78" y="-0.82" angle="90.00" type="moped" speed="3.52" pos="10.78" lane="beg_1" slope="0.00"/>
    </timestep>
    <timestep time="21.00">
        <vehicle id="moped.0" x="193.32" y="-4.44" angle="90.00" type="moped" speed="16.26" pos="193.32" lane="beg_0" slope="0.00"/>
        <vehicle id="moped.1" x="155.98" y="-1.43" angle="90.00" type="moped" speed="11.23" pos="155.98" lane="beg_1" slope="0.00"/>
        <vehicle id="moped.10" x="4.06" y="-1.91" angle="90.00" type="moped" speed="1.45" pos="4.06" lane="beg_1" slope="0.00"/>
        <vehicle id="moped.2" x="136.42" y="-2.71" angle="90.00" type="moped" speed="14.00" pos="136.42" lane="beg_1" slope="0.00"/>
        <vehicle id="moped.3" x="123.94" y="-4.63" angle="90.00" type="moped" speed="14.08" pos="123.94" lane="beg_0" slope="0.00"/>
        <vehicle id="moped.4" x="71.48" y="-5.61" angle="90.00" type="moped" speed="10.37" pos="71.48" lane="beg_0" slope="0.00"/>
        <vehicle id="moped.5" x="64.39" y="-1.48" angle="90.00" type="moped" speed="6.78" pos="64.39" lane="beg_1" slope="0.00"/>
        <vehicle id="moped.6" x="38.74" y="-5.31" angle="90.00" type="moped" speed="7.35" pos="38.74" lane="beg_0" slope="0.00"/>
        <vehicle id="moped.7" x="37.23" y="-2.34" angle="90.00" type="moped" speed="6.94" pos="37.23" lane="beg_1" slope="0.00"/>
        <vehicle id="moped.8" x="15.59" y="-4.53" angle="90.00" type="moped" speed="4.36" pos="15.59" lane="beg_0" slope="0.00"/>
        <vehicle id="moped.9" x="15.33" y="-0.82" angle="90.00" type="moped" speed="4.56" pos="15.33" lane="beg_1" slope="0.00"/>
    </timestep>
    <timestep time="22.00">
        <vehicle id="moped.0" x="209.40" y="-4.44" angle="90.00" type="moped" speed="16.08" pos="209.40" lane="beg_0" slope="0.00"/>
        <vehicle id="moped.1" x="167.17" y="-1.43" angle="90.00" type="moped" speed="11.19" pos="167.17" lane="beg_1" slope="0.00"/>
        <vehicle id="moped.10" x="6.11" y="-1.91" angle="90.00" type="moped" speed="2.05" pos="6.11" lane="beg_1" slope="0.00"/>
        <vehicle id="moped.11" x="2.20" y="-4.35" angle="90.00" type="moped" speed="0.00" pos="2.20" lane="beg_0" slope="0.00"/>
        <vehicle id="moped.2" x="150.63" y="-2.71" angle="90.00" type="moped" speed="14.22" pos="150.63" lane="beg_1" slope="0.00"/>
        <vehicle id="moped.3" x="138.69" y="-4.63" angle="90.00" type="moped" speed="14.75" pos="138.69" lane="beg_0" slope="0.00"/>
        <vehicle id="moped.4" x="82.73" y="-5.61" angle="90.00" type="moped" speed="11.25" pos="82.73" lane="beg_0" slope="0.00"/>
        <vehicle id="moped.5" x="71.11" y="-1.48" angle="90.00" type="moped" speed="6.72" pos="71.11" lane="beg_1" slope="0.00"/>
        <vehicle id="moped.6" x="47.14" y="-5.31" angle="90.00" type="moped" speed="8.40" pos="47.14" lane="beg_0" slope="0.00"/>
        <vehicle id="moped.7" x="44.75" y="-2.34" angle="90.00" type="moped" speed="7.52" pos="44.75" lane="beg_1" slope="0.00"/>
        <vehicle id="moped.8" x="20.74" y="-4.53" angle="90.00" type="moped" speed="5.15" pos="20.74" lane="beg_0" slope="0.00"/>
        <vehicle id="moped.9" x="20.87" y="-0.82" angle="90.00" type="moped" speed="5.53" pos="20.87" lane="beg_1" slope="0.00"/>
    </timestep>
    <timestep time="23.00">
        <vehicle id="moped.0" x="225.35" y="-4.44" angle="90.00" type="moped" speed="15.95" pos="225.35" lane="beg_0" slope="0.00"/>
        <vehicle id="moped.1" x="178.45" y="-1.43" angle="90.00" type="moped" speed="11.29" pos="178.45" lane="beg_1" slope="0.00"/>
        <vehicle id="moped.10" x="9.03" y="-1.91" angle="90.00" type="moped" speed="2.91" pos="9.03" lane="beg_1" slope="0.00"/>
        <vehicle id="moped.11" x="3.08" y="-4.35" angle="90.00" type="moped" speed="0.88" pos="3.08" lane="beg_0" slope="0.00"/>
        <vehicle id="moped.12" x="2.20" y="-1.58" angle="90.00" type="moped" speed="0.00" pos="2.20" lane="beg_1" slope="0.00"/>
        <vehicle id="moped.2" x="164.71" y="-2.71" angle="90.00" type="moped" speed="14.07" pos="164.71" lane="beg_1" slope="0.00"/>
        <vehicle id="moped.3" x="154.13" y="-4.63" angle="90.00" type="moped" speed="15.44" pos="154.13" lane="beg_0" slope="0.00"/>
        <vehicle id="moped.4" x="94.74" y="-5.61" angle="90.00" type="moped" speed="12.01" pos="94.74" lane="beg_0" slope="0.00"/>
        <vehicle id="moped.5" x="77.95" y="-1.48" angle="90.00" type="moped" speed="6.85" pos="77.95" lane="beg_1" slope="0.00"/>
        <vehicle id="moped.6" x="56.54" y="-5.31" angle="90.00" type="moped" speed="9.40" pos="56.54" lane="beg_0" slope="0.00"/>
        <vehicle id="moped.7" x="53.04" y="-2.34" angle="90.00" type="moped" speed="8.29" pos="53.04" lane="beg_1" slope="0.00"/>
        <vehicle id="moped.8" x="26.45" y="-4.53" angle="90.00" type="moped" speed="5.71" pos="26.45" lane="beg_0" slope="0.00"/>
        <vehicle id="moped.9" x="27.45" y="-0.82" angle="90.00" type="moped" speed="6.59" pos="27.45" lane="beg_1" slope="0.00"/>
    </timestep>
    <timestep time="24.00">
        <vehicle id="moped.0" x="241.64" y="-4.44" angle="90.00" type="moped" speed="16.29" pos="241.64" lane="beg_0" slope="0.00"/>
        <vehicle id="moped.1" x="189.71" y="-1.43" angle="90.00" type="moped" speed="11.26" pos="189.71" lane="beg_1" slope="0.00"/>
        <vehicle id="moped.10" x="12.54" y="-1.91" angle="90.00" type="moped" speed="3.51" pos="12.54" lane="beg_1" slope="0.00"/>
        <vehicle id="moped.11" x="4.65" y="-4.35" angle="90.00" type="moped" speed="1.56" pos="4.65" lane="beg_0" slope="0.00"/>
        <vehicle id="moped.12" x="3.17" y="-1.58" angle="90.00" type="moped" speed="0.97" pos="3.17" lane="beg_1" slope="0.00"/>
        <vehicle id="moped.2" x="178.73" y="-2.71" angle="90.00" type="moped" speed="14.02" pos="178.73" lane="beg_1" slope="0.00"/>
        <vehicle id="moped.3" x="170.48" y="-4.63" angle="90.00" type="moped" speed="16.35" pos="170.48" lane="beg_0" slope="0.00"/>
        <vehicle id="moped.4" x="107.71" y="-5.61" angle="90.00" type="moped" speed="12.97" pos="107.71" lane="beg_0" slope="0.00"/>
        <vehicle id="moped.5" x="84.28" y="-1.48" angle="90.00" type="moped" speed="6.33" pos="84.28" lane="beg_1" slope="0.00"/>
        <vehicle id="moped.6" x="66.79" y="-5.31" angle="90.00" type="moped" speed="10.25" pos="66.79" lane="beg_0" slope="0.00"/>
        <vehicle id="moped.7" x="61.68" y="-2.34" angle="90.00" type="moped" speed="8.64" pos="61.68" lane="beg_1" slope="0.00"/>
        <vehicle id="moped.8" x="33.09" y="-4.53" angle="90.00" type="moped" speed="6.64" pos="33.09" lane="beg_0" slope="0.00"/>
        <vehicle id="moped.9" x="35.02" y="-0.82" angle="90.00" type="moped" speed="7.57" pos="35.02" lane="beg_1" slope="0.00"/>
    </timestep>
    <timestep time="25.00">
        <vehicle id="moped.0" x="258.01" y="-4.44" angle="90.00" type="moped" speed="16.37" pos="258.01" lane="beg_0" slope="0.00"/>
        <vehicle id="moped.1" x="200.77" y="-1.43" angle="90.00" type="moped" speed="11.06" pos="200.77" lane="beg_1" slope="0.00"/>
        <vehicle id="moped.10" x="17.12" y="-1.91" angle="90.00" type="moped" speed="4.58" pos="17.12" lane="beg_1" slope="0.00"/>
        <vehicle id="moped.11" x="7.29" y="-4.35" angle="90.00" type="moped" speed="2.64" pos="7.29" lane="beg_0" slope="0.00"/>
        <vehicle id="moped.12" x="5.23" y="-1.58" angle="90.00" type="moped" speed="2.06" pos="5.23" lane="beg_1" slope="0.00"/>
        <vehicle id="moped.13" x="2.20" y="-4.84" angle="90.00" type="moped" speed="0.00" pos="2.20" lane="beg_0" slope="0.00"/>
        <vehicle id="moped.2" x="192.85" y="-2.71" angle="90.00" type="moped" speed="14.12" pos="192.85" lane="beg_1" slope="0.00"/>
        <vehicle id="moped.3" x="186.64" y="-4.63" angle="90.00" type="moped" speed="16.16" pos="186.64" lane="beg_0" slope="0.00"/>
        <vehicle id="moped.4" x="121.66" y="-5.61" angle="90.00" type="moped" speed="13.96" pos="121.66" lane="beg_0" slope="0.00"/>
        <vehicle id="moped.5" x="91.12" y="-1.48" angle="90.00" type="moped" speed="6.84" pos="91.12" lane="beg_1" slope="0.00"/>
        <vehicle id="moped.6" x="77.96" y="-5.31" angle="90.00" type="moped" speed="11.17" pos="77.96" lane="beg_0" slope="0.00"/>
        <vehicle id="moped.7" x="70.71" y="-2.34" angle="90.00" type="moped" speed="9.02" pos="70.71" lane="beg_1" slope="0.00"/>
        <vehicle id="moped.8" x="40.68" y="-4.53" angle="90.00" type="moped" speed="7.59" pos="40.68" lane="beg_0" slope="0.00"/>
        <vehicle id="moped.9" x="42.63" y="-0.82" angle="90.00" type="moped" speed="7.61" pos="42.63" lane="beg_1" slope="0.00"/>
    </timestep>
    <timestep time="26.00">
        <vehicle id="moped.0" x="274.24" y="-4.44" angle="90.00" type="moped" speed="16.23" pos="274.24" lane="beg_0" slope="0.00"/>
        <vehicle id="moped.1" x="211.96" y="-1.43" angle="90.00" type="moped" speed="11.19" pos="211.96" lane="beg_1" slope="0.00"/>
        <vehicle id="moped.10" x="22.61" y="-1.91" angle="90.00" type="moped" speed="5.50" pos="22.61" lane="beg_1" slope="0.00"/>
        <vehicle id="moped.11" x="10.90" y="-4.35" angle="90.00" type="moped" speed="3.61" pos="10.90" lane="beg_0" slope="0.00"/>
        <vehicle id="moped.12" x="7.90" y="-1.58" angle="90.00" type="moped" speed="2.67" pos="7.90" lane="beg_1" slope="0.00"/>
        <vehicle id="moped.13" x="2.45" y="-4.84" angle="90.00" type="moped" speed="0.25" pos="2.45" lane="beg_0" slope="0.00"/>
        <vehicle id="moped.14" x="2.20" y="-1.28" angle="90.00" type="moped" speed="0.00" pos="2.20" lane="beg_1" slope="0.00"/>
        <vehicle id="moped.2" x="206.79" y="-2.71" angle="90.00" type="moped" speed="13.94" pos="206.79" lane="beg_1" slope="0.00"/>
        <vehicle id="moped.3" x="203.23" y="-4.63" angle="90.00" type="moped" speed="16.58" pos="203.23" lane="beg_0" slope="0.00"/>
        <vehicle id="moped.4" x="136.60" y="-5.61" angle="90.00" type="moped" speed="14.94" pos="136.60" lane="beg_0" slope="0.00"/>
        <vehicle id="moped.5" x="97.54" y="-1.48" angle="90.00" type="moped" speed="6.41" pos="97.54" lane="beg_1" slope="0.00"/>
        <vehicle id="moped.6" x="90.05" y="-5.31" angle="90.00" type="moped" speed="12.09" pos="90.05" lane="beg_0" slope="0.00"/>
        <vehicle id="moped.7" x="79.58" y="-2.34" angle="90.00" type="moped" speed="8.88" pos="79.58" lane="beg_1" slope="0.00"/>
        <vehicle id="moped.8" x="49.01" y="-4.53" angle="90.00" type="moped" speed="8.33" pos="49.01" lane="beg_0" slope="0.00"/>
        <vehicle id="moped.9" x="50.35" y="-0.82" angle="90.00" type="moped" speed="7.72" pos="50.35" lane="beg_1" slope="0.00"/>
    </timestep>
    <timestep time="27.00">
        <vehicle id="moped.0" x="290.31" y="-4.44" angle="90.00" type="moped" speed="16.07" pos="290.31" lane="beg_0" slope="0.00"/>
        <vehicle id="moped.1" x="223.08" y="-1.43" angle="90.00" type="moped" speed="11.12" pos="223.08" lane="beg_1" slope="0.00"/>
        <vehicle id="moped.10" x="28.80" y="-1.91" angle="90.00" type="moped" speed="6.19" pos="28.80" lane="beg_1" slope="0.00"/>
        <vehicle id="moped.11" x="15.15" y="-4.35" angle="90.00" type="moped" speed="4.25" pos="15.15" lane="beg_0" slope="0.00"/>
        <vehicle id="moped.12" x="11.22" y="-1.58" angle="90.00" type="moped" speed="3.33" pos="11.22" lane="beg_1" slope="0.00"/>
        <vehicle id="moped.13" x="3.43" y="-4.84" angle="90.00" type="moped" speed="0.99" pos="3.43" lane="beg_0" slope="0.00"/>