<?xml version="1.0" encoding="UTF-8"?>

<!-- generated on Mon Feb  1 15:43:01 2016 by SUMO Version dev-SVN-r19829
<?xml version="1.0" encoding="UTF-8"?>

<configuration xmlns:xsi="http://www.w3.org/2001/XMLSchema-instance" xsi:noNamespaceSchemaLocation="http://sumo.dlr.de/xsd/sumoConfiguration.xsd">

    <input>
        <net-file value="net.net.xml"/>
        <route-files value="input_routes.rou.xml"/>
    </input>

    <output>
        <tripinfo-output value="tripinfos.xml"/>
    </output>

    <processing>
        <lateral-resolution value="1.1"/>
    </processing>

    <report>
        <xml-validation value="never"/>
        <no-step-log value="true"/>
    </report>

</configuration>
-->

<tripinfos xmlns:xsi="http://www.w3.org/2001/XMLSchema-instance" xsi:noNamespaceSchemaLocation="http://sumo.dlr.de/xsd/tripinfo_file.xsd">
    <tripinfo id="moped.6" depart="7.00" departLane="beg_1" departPos="2.20" departSpeed="0.00" departDelay="1.00" arrival="204.00" arrivalLane="end_1" arrivalPos="10.00" arrivalSpeed="4.87" duration="197.00" routeLength="507.80" waitSteps="148" timeLoss="164.62" rerouteNo="0" devices="tripinfo_moped.6" vType="moped" vaporized=""/>
    <tripinfo id="moped.1" depart="1.00" departLane="beg_1" departPos="2.20" departSpeed="0.00" departDelay="0.00" arrival="204.00" arrivalLane="end_1" arrivalPos="10.00" arrivalSpeed="4.04" duration="203.00" routeLength="507.80" waitSteps="145" timeLoss="157.96" rerouteNo="0" devices="tripinfo_moped.1" vType="moped" vaporized=""/>
    <tripinfo id="moped.4" depart="4.00" departLane="beg_0" departPos="2.20" departSpeed="0.00" departDelay="0.00" arrival="204.00" arrivalLane="end_0" arrivalPos="10.00" arrivalSpeed="4.69" duration="200.00" routeLength="507.80" waitSteps="150" timeLoss="166.22" rerouteNo="0" devices="tripinfo_moped.4" vType="moped" vaporized=""/>
    <tripinfo id="moped.0" depart="0.00" departLane="beg_0" departPos="2.20" departSpeed="0.00" departDelay="0.00" arrival="204.00" arrivalLane="end_0" arrivalPos="10.00" arrivalSpeed="4.76" duration="204.00" routeLength="507.80" waitSteps="159" timeLoss="172.81" rerouteNo="0" devices="tripinfo_moped.0" vType="moped" vaporized=""/>
    <tripinfo id="moped.2" depart="2.00" departLane="beg_0" departPos="2.20" departSpeed="0.00" departDelay="0.00" arrival="204.00" arrivalLane="end_0" arrivalPos="10.00" arrivalSpeed="3.84" duration="202.00" routeLength="507.80" waitSteps="151" timeLoss="166.48" rerouteNo="0" devices="tripinfo_moped.2" vType="moped" vaporized=""/>
    <tripinfo id="moped.3" depart="4.00" departLane="beg_1" departPos="2.20" departSpeed="0.00" departDelay="1.00" arrival="205.00" arrivalLane="end_1" arrivalPos="10.00" arrivalSpeed="4.15" duration="201.00" routeLength="507.80" waitSteps="147" timeLoss="170.30" rerouteNo="0" devices="tripinfo_moped.3" vType="moped" vaporized=""/>
    <tripinfo id="moped.11" depart="12.00" departLane="beg_0" departPos="2.20" departSpeed="0.00" departDelay="1.00" arrival="206.00" arrivalLane="end_0" arrivalPos="10.00" arrivalSpeed="5.13" duration="194.00" routeLength="507.80" waitSteps="142" timeLoss="159.90" rerouteNo="0" devices="tripinfo_moped.11" vType="moped" vaporized=""/>
    <tripinfo id="moped.14" depart="18.00" departLane="beg_0" departPos="2.20" departSpeed="0.00" departDelay="4.00" arrival="206.00" arrivalLane="end_0" arrivalPos="10.00" arrivalSpeed="4.95" duration="188.00" routeLength="507.80" waitSteps="133" timeLoss="150.28" rerouteNo="0" devices="tripinfo_moped.14" vType="moped" vaporized=""/>
    <tripinfo id="moped.12" depart="15.00" departLane="beg_1" departPos="2.20" departSpeed="0.00" departDelay="3.00" arrival="206.00" arrivalLane="end_1" arrivalPos="10.00" arrivalSpeed="5.19" duration="191.00" routeLength="507.80" waitSteps="141" timeLoss="158.75" rerouteNo="0" devices="tripinfo_moped.12" vType="moped" vaporized=""/>
    <tripinfo id="moped.8" depart="8.00" departLane="beg_1" departPos="2.20" departSpeed="0.00" departDelay="0.00" arrival="206.00" arrivalLane="end_1" arrivalPos="10.00" arrivalSpeed="5.03" duration="198.00" routeLength="507.80" waitSteps="139" timeLoss="152.87" rerouteNo="0" devices="tripinfo_moped.8" vType="moped" vaporized=""/>
    <tripinfo id="moped.7" depart="8.00" departLane="beg_0" departPos="2.20" departSpeed="0.00" departDelay="1.00" arrival="207.00" arrivalLane="end_0" arrivalPos="10.00" arrivalSpeed="5.00" duration="199.00" routeLength="507.80" waitSteps="130" timeLoss="143.12" rerouteNo="0" devices="tripinfo_moped.7" vType="moped" vaporized=""/>
    <tripinfo id="moped.10" depart="12.00" departLane="beg_0" departPos="2.20" departSpeed="0.00" departDelay="2.00" arrival="207.00" arrivalLane="end_1" arrivalPos="10.00" arrivalSpeed="5.19" duration="195.00" routeLength="507.80" waitSteps="146" timeLoss="164.29" rerouteNo="0" devices="tripinfo_moped.10" vType="moped" vaporized=""/>
    <tripinfo id="moped.17" depart="22.00" departLane="beg_0" departPos="2.20" departSpeed="0.00" departDelay="5.00" arrival="208.00" arrivalLane="end_0" arrivalPos="10.00" arrivalSpeed="5.50" duration="186.00" routeLength="507.80" waitSteps="125" timeLoss="141.47" rerouteNo="0" devices="tripinfo_moped.17" vType="moped" vaporized=""/>
    <tripinfo id="moped.15" depart="19.00" departLane="beg_1" departPos="2.20" departSpeed="0.00" departDelay="4.00" arrival="209.00" arrivalLane="end_1" arrivalPos="10.00" arrivalSpeed="6.02" duration="190.00" routeLength="507.80" waitSteps="130" timeLoss="142.60" rerouteNo="0" devices="tripinfo_moped.15" vType="moped" vaporized=""/>
    <tripinfo id="moped.19" depart="26.00" departLane="beg_1" departPos="2.20" departSpeed="0.00" departDelay="7.00" arrival="209.00" arrivalLane="end_1" arrivalPos="10.00" arrivalSpeed="5.73" duration="183.00" routeLength="507.80" waitSteps="133" timeLoss="152.17" rerouteNo="0" devices="tripinfo_moped.19" vType="moped" vaporized=""/>
    <tripinfo id="moped.13" depart="15.00" departLane="beg_0" departPos="2.20" departSpeed="0.00" departDelay="2.00" arrival="209.00" arrivalLane="end_1" arrivalPos="10.00" arrivalSpeed="5.48" duration="194.00" routeLength="507.80" waitSteps="143" timeLoss="163.32" rerouteNo="0" devices="tripinfo_moped.13" vType="moped" vaporized=""/>
    <tripinfo id="moped.22" depart="32.00" departLane="beg_1" departPos="2.20" departSpeed="0.00" departDelay="10.00" arrival="209.00" arrivalLane="end_0" arrivalPos="10.00" arrivalSpeed="6.18" duration="177.00" routeLength="507.80" waitSteps="120" timeLoss="137.01" rerouteNo="0" devices="tripinfo_moped.22" vType="moped" vaporized=""/>
    <tripinfo id="moped.21" depart="31.00" departLane="beg_0" departPos="2.20" departSpeed="0.00" departDelay="10.00" arrival="209.00" arrivalLane="end_0" arrivalPos="10.00" arrivalSpeed="5.03" duration="178.00" routeLength="507.80" waitSteps="122" timeLoss="142.37" rerouteNo="0" devices="tripinfo_moped.21" vType="moped" vaporized=""/>
    <tripinfo id="moped.9" depart="11.00" departLane="beg_1" departPos="2.20" departSpeed="0.00" departDelay="2.00" arrival="210.00" arrivalLane="end_1" arrivalPos="10.00" arrivalSpeed="5.81" duration="199.00" routeLength="507.80" waitSteps="122" timeLoss="134.85" rerouteNo="0" devices="tripinfo_moped.9" vType="moped" vaporized=""/>
    <tripinfo id="moped.18" depart="26.00" departLane="beg_0" departPos="2.20" departSpeed="0.00" departDelay="8.00" arrival="210.00" arrivalLane="end_0" arrivalPos="10.00" arrivalSpeed="6.15" duration="184.00" routeLength="507.80" waitSteps="124" timeLoss="138.56" rerouteNo="0" devices="tripinfo_moped.18" vType="moped" vaporized=""/>
    <tripinfo id="moped.16" depart="22.00" departLane="beg_1" departPos="2.20" departSpeed="0.00" departDelay="6.00" arrival="211.00" arrivalLane="end_1" arrivalPos="10.00" arrivalSpeed="7.12" duration="189.00" routeLength="507.80" waitSteps="117" timeLoss="130.69" rerouteNo="0" devices="tripinfo_moped.16" vType="moped" vaporized=""/>
    <tripinfo id="moped.20" depart="27.00" departLane="beg_0" departPos="2.20" departSpeed="0.00" departDelay="7.00" arrival="211.00" arrivalLane="end_1" arrivalPos="10.00" arrivalSpeed="6.48" duration="184.00" routeLength="507.80" waitSteps="131" timeLoss="148.95" rerouteNo="0" devices="tripinfo_moped.20" vType="moped" vaporized=""/>
    <tripinfo id="moped.5" depart="6.00" departLane="beg_0" departPos="2.20" departSpeed="0.00" departDelay="1.00" arrival="211.00" arrivalLane="end_0" arrivalPos="10.00" arrivalSpeed="6.34" duration="205.00" routeLength="507.80" waitSteps="118" timeLoss="130.18" rerouteNo="0" devices="tripinfo_moped.5" vType="moped" vaporized=""/>
    <tripinfo id="moped.26" depart="37.00" departLane="beg_0" departPos="2.20" departSpeed="0.00" departDelay="11.00" arrival="211.00" arrivalLane="end_0" arrivalPos="10.00" arrivalSpeed="6.16" duration="174.00" routeLength="507.80" waitSteps="111" timeLoss="125.07" rerouteNo="0" devices="tripinfo_moped.26" vType="moped" vaporized=""/>
    <tripinfo id="moped.23" depart="33.00" departLane="beg_0" departPos="2.20" departSpeed="0.00" departDelay="10.00" arrival="212.00" arrivalLane="end_0" arrivalPos="10.00" arrivalSpeed="7.25" duration="179.00" routeLength="507.80" waitSteps="110" timeLoss="123.94" rerouteNo="0" devices="tripinfo_moped.23" vType="moped" vaporized=""/>
    <tripinfo id="moped.30" depart="44.00" departLane="beg_0" departPos="2.20" departSpeed="0.00" departDelay="14.00" arrival="213.00" arrivalLane="end_0" arrivalPos="10.00" arrivalSpeed="6.45" duration="169.00" routeLength="507.80" waitSteps="114" timeLoss="138.38" rerouteNo="0" devices="tripinfo_moped.30" vType="moped" vaporized=""/>
    <tripinfo id="moped.29" depart="41.00" departLane="beg_0" departPos="2.20" departSpeed="0.00" departDelay="12.00" arrival="213.00" arrivalLane="end_0" arrivalPos="10.00" arrivalSpeed="6.58" duration="172.00" routeLength="507.80" waitSteps="110" timeLoss="125.77" rerouteNo="0" devices="tripinfo_moped.29" vType="moped" vaporized=""/>
    <tripinfo id="moped.27" depart="39.00" departLane="beg_1" departPos="2.20" departSpeed="0.00" departDelay="12.00" arrival="213.00" arrivalLane="end_1" arrivalPos="10.00" arrivalSpeed="7.19" duration="174.00" routeLength="507.80" waitSteps="114" timeLoss="130.33" rerouteNo="0" devices="tripinfo_moped.27" vType="moped" vaporized=""/>
    <tripinfo id="moped.28" depart="41.00" departLane="beg_1" departPos="2.20" departSpeed="0.00" departDelay="13.00" arrival="213.00" arrivalLane="end_1" arrivalPos="10.00" arrivalSpeed="7.18" duration="172.00" routeLength="507.80" waitSteps="120" timeLoss="141.19" rerouteNo="0" devices="tripinfo_moped.28" vType="moped" vaporized=""/>
    <tripinfo id="moped.31" depart="45.00" departLane="beg_1" departPos="2.20" departSpeed="0.00" departDelay="14.00" arrival="213.00" arrivalLane="end_1" arrivalPos="10.00" arrivalSpeed="6.65" duration="168.00" routeLength="507.80" waitSteps="114" timeLoss="137.32" rerouteNo="0" devices="tripinfo_moped.31" vType="moped" vaporized=""/>
    <tripinfo id="moped.38" depart="59.00" departLane="beg_0" departPos="2.20" departSpeed="0.00" departDelay="21.00" arrival="214.00" arrivalLane="end_0" arrivalPos="10.00" arrivalSpeed="7.64" duration="155.00" routeLength="507.80" waitSteps="104" timeLoss="124.25" rerouteNo="0" devices="tripinfo_moped.38" vType="moped" vaporized=""/>
    <tripinfo id="moped.32" depart="46.00" departLane="beg_0" departPos="2.20" departSpeed="0.00" departDelay="14.00" arrival="215.00" arrivalLane="end_1" arrivalPos="10.00" arrivalSpeed="8.05" duration="169.00" routeLength="507.80" waitSteps="112" timeLoss="132.48" rerouteNo="0" devices="tripinfo_moped.32" vType="moped" vaporized=""/>
    <tripinfo id="moped.25" depart="36.00" departLane="beg_1" departPos="2.20" departSpeed="0.00" departDelay="11.00" arrival="215.00" arrivalLane="end_1" arrivalPos="10.00" arrivalSpeed="7.51" duration="179.00" routeLength="507.80" waitSteps="104" timeLoss="119.35" rerouteNo="0" devices="tripinfo_moped.25" vType="moped" vaporized=""/>
    <tripinfo id="moped.33" depart="48.00" departLane="beg_1" departPos="2.20" departSpeed="0.00" departDelay="15.00" arrival="215.00" arrivalLane="end_1" arrivalPos="10.00" arrivalSpeed="6.92" duration="167.00" routeLength="507.80" waitSteps="113" timeLoss="136.38" rerouteNo="0" devices="tripinfo_moped.33" vType="moped" vaporized=""/>
    <tripinfo id="moped.37" depart="57.00" departLane="beg_1" departPos="2.20" departSpeed="0.00" departDelay="20.00" arrival="215.00" arrivalLane="end_0" arrivalPos="10.00" arrivalSpeed="7.57" duration="158.00" routeLength="507.80" waitSteps="102" timeLoss="127.20" rerouteNo="0" devices="tripinfo_moped.37" vType="moped" vaporized=""/>
    <tripinfo id="moped.34" depart="50.00" departLane="beg_0" departPos="2.20" departSpeed="0.00" departDelay="16.00" arrival="215.00" arrivalLane="end_0" arrivalPos="10.00" arrivalSpeed="6.77" duration="165.00" routeLength="507.80" waitSteps="108" timeLoss="127.78" rerouteNo="0" devices="tripinfo_moped.34" vType="moped" vaporized=""/>
    <tripinfo id="moped.45" depart="68.00" departLane="beg_0" departPos="2.20" departSpeed="0.00" departDelay="23.00" arrival="216.00" arrivalLane="end_0" arrivalPos="10.00" arrivalSpeed="7.69" duration="148.00" routeLength="507.80" waitSteps="97" timeLoss="117.27" rerouteNo="0" devices="tripinfo_moped.45" vType="moped" vaporized=""/>
    <tripinfo id="moped.36" depart="54.00" departLane="beg_0" departPos="2.20" departSpeed="0.00" departDelay="18.00" arrival="217.00" arrivalLane="end_0" arrivalPos="10.00" arrivalSpeed="7.57" duration="163.00" routeLength="507.80" waitSteps="103" timeLoss="122.93" rerouteNo="0" devices="tripinfo_moped.36" vType="moped" vaporized=""/>
    <tripinfo id="moped.43" depart="65.00" departLane="beg_0" departPos="2.20" departSpeed="0.00" departDelay="22.00" arrival="217.00" arrivalLane="end_0" arrivalPos="10.00" arrivalSpeed="7.72" duration="152.00" routeLength="507.80" waitSteps="97" timeLoss="118.97" rerouteNo="0" devices="tripinfo_moped.43" vType="moped" vaporized=""/>
    <tripinfo id="moped.42" depart="63.00" departLane="beg_1" departPos="2.20" departSpeed="0.00" departDelay="21.00" arrival="217.00" arrivalLane="end_1" arrivalPos="10.00" arrivalSpeed="8.09" duration="154.00" routeLength="507.80" waitSteps="103" timeLoss="123.11" rerouteNo="0" devices="tripinfo_moped.42" vType="moped" vaporized=""/>
    <tripinfo id="moped.35" depart="53.00" departLane="beg_1" departPos="2.20" departSpeed="0.00" departDelay="18.00" arrival="217.00" arrivalLane="end_1" arrivalPos="10.00" arrivalSpeed="7.61" duration="164.00" routeLength="507.80" waitSteps="110" timeLoss="129.22" rerouteNo="0" devices="tripinfo_moped.35" vType="moped" vaporized=""/>
    <tripinfo id="moped.40" depart="61.00" departLane="beg_1" departPos="2.20" departSpeed="0.00" departDelay="21.00" arrival="217.00" arrivalLane="end_1" arrivalPos="10.00" arrivalSpeed="7.79" duration="156.00" routeLength="507.80" waitSteps="100" timeLoss="122.23" rerouteNo="0" devices="tripinfo_moped.40" vType="moped" vaporized=""/>
    <tripinfo id="moped.53" depart="79.00" departLane="beg_1" departPos="2.20" departSpeed="0.00" departDelay="26.00" arrival="218.00" arrivalLane="end_0" arrivalPos="10.00" arrivalSpeed="7.71" duration="139.00" routeLength="507.80" waitSteps="85" timeLoss="108.40" rerouteNo="0" devices="tripinfo_moped.53" vType="moped" vaporized=""/>
    <tripinfo id="moped.41" depart="63.00" departLane="beg_0" departPos="2.20" departSpeed="0.00" departDelay="22.00" arrival="219.00" arrivalLane="end_1" arrivalPos="10.00" arrivalSpeed="8.31" duration="156.00" routeLength="507.80" waitSteps="93" timeLoss="113.50" rerouteNo="0" devices="tripinfo_moped.41" vType="moped" vaporized=""/>
    <tripinfo id="moped.44" depart="68.00" departLane="beg_1" departPos="2.20" departSpeed="0.00" departDelay="24.00" arrival="219.00" arrivalLane="end_1" arrivalPos="10.00" arrivalSpeed="8.79" duration="151.00" routeLength="507.80" waitSteps="98" timeLoss="118.20" rerouteNo="0" devices="tripinfo_moped.44" vType="moped" vaporized=""/>
    <tripinfo id="moped.39" depart="61.00" departLane="beg_1" departPos="2.20" departSpeed="0.00" departDelay="22.00" arrival="219.00" arrivalLane="end_1" arrivalPos="10.00" arrivalSpeed="8.22" duration="158.00" routeLength="507.80" waitSteps="90" timeLoss="105.33" rerouteNo="0" devices="tripinfo_moped.39" vType="moped" vaporized=""/>
    <tripinfo id="moped.52" depart="79.00" departLane="beg_0" departPos="2.20" departSpeed="0.00" departDelay="27.00" arrival="219.00" arrivalLane="end_0" arrivalPos="10.00" arrivalSpeed="8.62" duration="140.00" routeLength="507.80" waitSteps="83" timeLoss="104.66" rerouteNo="0" devices="tripinfo_moped.52" vType="moped" vaporized=""/>
    <tripinfo id="moped.24" depart="34.00" departLane="beg_0" departPos="2.20" departSpeed="0.00" departDelay="10.00" arrival="219.00" arrivalLane="end_0" arrivalPos="10.00" arrivalSpeed="6.28" duration="185.00" routeLength="507.80" waitSteps="94" timeLoss="108.27" rerouteNo="0" devices="tripinfo_moped.24" vType="moped" vaporized=""/>
    <tripinfo id="moped.58" depart="87.00" departLane="beg_0" departPos="2.20" departSpeed="0.00" departDelay="29.00" arrival="220.00" arrivalLane="end_0" arrivalPos="10.00" arrivalSpeed="8.64" duration="133.00" routeLength="507.80" waitSteps="73" timeLoss="98.60" rerouteNo="0" devices="tripinfo_moped.58" vType="moped" vaporized=""/>
    <tripinfo id="moped.54" depart="83.00" departLane="beg_1" departPos="2.20" departSpeed="0.00" departDelay="29.00" arrival="220.00" arrivalLane="end_0" arrivalPos="10.00" arrivalSpeed="8.35" duration="137.00" routeLength="507.80" waitSteps="79" timeLoss="100.61" rerouteNo="0" devices="tripinfo_moped.54" vType="moped" vaporized=""/>
    <tripinfo id="moped.46" depart="69.00" departLane="beg_1" departPos="2.20" departSpeed="0.00" departDelay="23.00" arrival="220.00" arrivalLane="end_1" arrivalPos="10.00" arrivalSpeed="7.75" duration="151.00" routeLength="507.80" waitSteps="93" timeLoss="114.09" rerouteNo="0" devices="tripinfo_moped.46" vType="moped" vaporized=""/>
    <tripinfo id="moped.48" depart="72.00" departLane="beg_0" departPos="2.20" departSpeed="0.00" departDelay="24.00" arrival="221.00" arrivalLane="end_0" arrivalPos="10.00" arrivalSpeed="8.26" duration="149.00" routeLength="507.80" waitSteps="76" timeLoss="90.50" rerouteNo="0" devices="tripinfo_moped.48" vType="moped" vaporized=""/>
    <tripinfo id="moped.47" depart="72.00" departLane="beg_1" departPos="2.20" departSpeed="0.00" departDelay="25.00" arrival="221.00" arrivalLane="end_1" arrivalPos="10.00" arrivalSpeed="8.74" duration="149.00" routeLength="507.80" waitSteps="80" timeLoss="96.04" rerouteNo="0" devices="tripinfo_moped.47" vType="moped" vaporized=""/>
    <tripinfo id="moped.51" depart="78.00" departLane="beg_1" departPos="2.20" departSpeed="0.00" departDelay="27.00" arrival="221.00" arrivalLane="end_1" arrivalPos="10.00" arrivalSpeed="8.35" duration="143.00" routeLength="507.80" waitSteps="89" timeLoss="112.27" rerouteNo="0" devices="tripinfo_moped.51" vType="moped" vaporized=""/>
    <tripinfo id="moped.57" depart="87.00" departLane="beg_1" departPos="2.20" departSpeed="0.00" departDelay="30.00" arrival="222.00" arrivalLane="end_1" arrivalPos="10.00" arrivalSpeed="9.19" duration="135.00" routeLength="507.80" waitSteps="83" timeLoss="104.19" rerouteNo="0" devices="tripinfo_moped.57" vType="moped" vaporized=""/>
    <tripinfo id="moped.60" depart="91.00" departLane="beg_1" departPos="2.20" departSpeed="0.00" departDelay="31.00" arrival="222.00" arrivalLane="end_1" arrivalPos="10.00" arrivalSpeed="8.52" duration="131.00" routeLength="507.80" waitSteps="78" timeLoss="100.36" rerouteNo="0" devices="tripinfo_moped.60" vType="moped" vaporized=""/>
    <tripinfo id="moped.50" depart="76.00" departLane="beg_0" departPos="2.20" departSpeed="0.00" departDelay="26.00" arrival="222.00" arrivalLane="end_0" arrivalPos="10.00" arrivalSpeed="7.56" duration="146.00" routeLength="507.80" waitSteps="67" timeLoss="80.63" rerouteNo="0" devices="tripinfo_moped.50" vType="moped" vaporized=""/>
    <tripinfo id="moped.61" depart="94.00" departLane="beg_0" departPos="2.20" departSpeed="0.00" departDelay="33.00" arrival="223.00" arrivalLane="end_0" arrivalPos="10.00" arrivalSpeed="8.95" duration="129.00" routeLength="507.80" waitSteps="73" timeLoss="98.11" rerouteNo="0" devices="tripinfo_moped.61" vType="moped" vaporized=""/>
    <tripinfo id="moped.56" depart="83.00" departLane="beg_0" departPos="2.20" departSpeed="0.00" departDelay="27.00" arrival="223.00" arrivalLane="end_0" arrivalPos="10.00" arrivalSpeed="8.77" duration="140.00" routeLength="507.80" waitSteps="71" timeLoss="86.92" rerouteNo="0" devices="tripinfo_moped.56" vType="moped" vaporized=""/>
    <tripinfo id="moped.73" depart="110.00" departLane="beg_0" departPos="2.20" departSpeed="0.00" departDelay="37.00" arrival="223.00" arrivalLane="end_0" arrivalPos="10.00" arrivalSpeed="8.55" duration="113.00" routeLength="507.80" waitSteps="59" timeLoss="82.09" rerouteNo="0" devices="tripinfo_moped.73" vType="moped" vaporized=""/>
    <tripinfo id="moped.55" depart="83.00" departLane="beg_0" departPos="2.20" departSpeed="0.00" departDelay="28.00" arrival="223.00" arrivalLane="end_1" arrivalPos="10.00" arrivalSpeed="8.96" duration="140.00" routeLength="507.80" waitSteps="83" timeLoss="102.66" rerouteNo="0" devices="tripinfo_moped.55" vType="moped" vaporized=""/>
    <tripinfo id="moped.59" depart="90.00" departLane="beg_0" departPos="2.20" departSpeed="0.00" departDelay="31.00" arrival="224.00" arrivalLane="end_1" arrivalPos="10.00" arrivalSpeed="9.46" duration="134.00" routeLength="507.80" waitSteps="74" timeLoss="93.20" rerouteNo="0" devices="tripinfo_moped.59" vType="moped" vaporized=""/>
    <tripinfo id="moped.49" depart="75.00" departLane="beg_1" departPos="2.20" departSpeed="0.00" departDelay="26.00" arrival="224.00" arrivalLane="end_1" arrivalPos="10.00" arrivalSpeed="7.19" duration="149.00" routeLength="507.80" waitSteps="68" timeLoss="82.29" rerouteNo="0" devices="tripinfo_moped.49" vType="moped" vaporized=""/>
    <tripinfo id="moped.64" depart="96.00" departLane="beg_0" departPos="2.20" departSpeed="0.00" departDelay="32.00" arrival="224.00" arrivalLane="end_0" arrivalPos="10.00" arrivalSpeed="8.75" duration="128.00" routeLength="507.80" waitSteps="65" timeLoss="82.94" rerouteNo="0" devices="tripinfo_moped.64" vType="moped" vaporized=""/>
    <tripinfo id="moped.68" depart="103.00" departLane="beg_0" departPos="2.20" departSpeed="0.00" departDelay="35.00" arrival="224.00" arrivalLane="end_0" arrivalPos="10.00" arrivalSpeed="9.07" duration="121.00" routeLength="507.80" waitSteps="69" timeLoss="88.27" rerouteNo="0" devices="tripinfo_moped.68" vType="moped" vaporized=""/>
    <tripinfo id="moped.75" depart="114.00" departLane="beg_0" departPos="2.20" departSpeed="0.00" departDelay="39.00" arrival="225.00" arrivalLane="end_0" arrivalPos="10.00" arrivalSpeed="9.65" duration="111.00" routeLength="507.80" waitSteps="49" timeLoss="72.57" rerouteNo="0" devices="tripinfo_moped.75" vType="moped" vaporized=""/>
    <tripinfo id="moped.62" depart="94.00" departLane="beg_1" departPos="2.20" departSpeed="0.00" departDelay="32.00" arrival="225.00" arrivalLane="end_1" arrivalPos="10.00" arrivalSpeed="9.32" duration="131.00" routeLength="507.80" waitSteps="74" timeLoss="95.49" rerouteNo="0" devices="tripinfo_moped.62" vType="moped" vaporized=""/>
    <tripinfo id="moped.63" depart="95.00" departLane="beg_1" departPos="2.20" departSpeed="0.00" departDelay="32.00" arrival="225.00" arrivalLane="end_1" arrivalPos="10.00" arrivalSpeed="9.10" duration="130.00" routeLength="507.80" waitSteps="72" timeLoss="91.84" rerouteNo="0" devices="tripinfo_moped.63" vType="moped" vaporized=""/>
    <tripinfo id="moped.69" depart="103.00" departLane="beg_1" departPos="2.20" departSpeed="0.00" departDelay="34.00" arrival="226.00" arrivalLane="end_1" arrivalPos="10.00" arrivalSpeed="10.01" duration="123.00" routeLength="507.80" waitSteps="67" timeLoss="88.14" rerouteNo="0" devices="tripinfo_moped.69" vType="moped" vaporized=""/>
    <tripinfo id="moped.66" depart="99.00" departLane="beg_1" departPos="2.20" departSpeed="0.00" departDelay="33.00" arrival="226.00" arrivalLane="end_1" arrivalPos="10.00" arrivalSpeed="9.00" duration="127.00" routeLength="507.80" waitSteps="58" timeLoss="76.06" rerouteNo="0" devices="tripinfo_moped.66" vType="moped" vaporized=""/>
    <tripinfo id="moped.70" depart="106.00" departLane="beg_0" departPos="2.20" departSpeed="0.00" departDelay="36.00" arrival="226.00" arrivalLane="end_0" arrivalPos="10.00" arrivalSpeed="9.54" duration="120.00" routeLength="507.80" waitSteps="64" timeLoss="85.42" rerouteNo="0" devices="tripinfo_moped.70" vType="moped" vaporized=""/>
    <tripinfo id="moped.71" depart="106.00" departLane="beg_0" departPos="2.20" departSpeed="0.00" departDelay="35.00" arrival="226.00" arrivalLane="end_0" arrivalPos="10.00" arrivalSpeed="10.49" duration="120.00" routeLength="507.80" waitSteps="61" timeLoss="79.75" rerouteNo="0" devices="tripinfo_moped.71" vType="moped" vaporized=""/>
    <tripinfo id="moped.80" depart="123.00" departLane="beg_0" departPos="2.20" departSpeed="0.00" departDelay="43.00" arrival="227.00" arrivalLane="end_0" arrivalPos="10.00" arrivalSpeed="9.72" duration="104.00" routeLength="507.80" waitSteps="45" timeLoss="70.57" rerouteNo="0" devices="tripinfo_moped.80" vType="moped" vaporized=""/>
    <tripinfo id="moped.65" depart="98.00" departLane="beg_1" departPos="2.20" departSpeed="0.00" departDelay="33.00" arrival="227.00" arrivalLane="end_1" arrivalPos="10.00" arrivalSpeed="8.57" duration="129.00" routeLength="507.80" waitSteps="55" timeLoss="72.02" rerouteNo="0" devices="tripinfo_moped.65" vType="moped" vaporized=""/>
    <tripinfo id="moped.77" depart="118.00" departLane="beg_0" departPos="2.20" departSpeed="0.00" departDelay="41.00" arrival="228.00" arrivalLane="end_0" arrivalPos="10.00" arrivalSpeed="10.15" duration="110.00" routeLength="507.80" waitSteps="50" timeLoss="70.57" rerouteNo="0" devices="tripinfo_moped.77" vType="moped" vaporized=""/>
    <tripinfo id="moped.74" depart="111.00" departLane="beg_1" departPos="2.20" departSpeed="0.00" departDelay="37.00" arrival="228.00" arrivalLane="end_0" arrivalPos="10.00" arrivalSpeed="10.38" duration="117.00" routeLength="507.80" waitSteps="51" timeLoss="74.12" rerouteNo="0" devices="tripinfo_moped.74" vType="moped" vaporized=""/>
    <tripinfo id="moped.76" depart="115.00" departLane="beg_1" departPos="2.20" departSpeed="0.00" departDelay="39.00" arrival="228.00" arrivalLane="end_1" arrivalPos="10.00" arrivalSpeed="10.60" duration="113.00" routeLength="507.80" waitSteps="57" timeLoss="78.96" rerouteNo="0" devices="tripinfo_moped.76" vType="moped" vaporized=""/>
    <tripinfo id="moped.67" depart="102.00" departLane="beg_1" departPos="2.20" departSpeed="0.00" departDelay="35.00" arrival="228.00" arrivalLane="end_1" arrivalPos="10.00" arrivalSpeed="10.31" duration="126.00" routeLength="507.80" waitSteps="58" timeLoss="76.15" rerouteNo="0" devices="tripinfo_moped.67" vType="moped" vaporized=""/>
    <tripinfo id="moped.78" depart="119.00" departLane="beg_1" departPos="2.20" departSpeed="0.00" departDelay="41.00" arrival="229.00" arrivalLane="end_1" arrivalPos="10.00" arrivalSpeed="10.59" duration="110.00" routeLength="507.80" waitSteps="49" timeLoss="73.52" rerouteNo="0" devices="tripinfo_moped.78" vType="moped" vaporized=""/>
    <tripinfo id="moped.79" depart="122.00" departLane="beg_1" departPos="2.20" departSpeed="0.00" departDelay="43.00" arrival="229.00" arrivalLane="end_1" arrivalPos="10.00" arrivalSpeed="9.47" duration="107.00" routeLength="507.80" waitSteps="53" timeLoss="76.48" rerouteNo="0" devices="tripinfo_moped.79" vType="moped" vaporized=""/>
    <tripinfo id="moped.84" depart="129.00" departLane="beg_0" departPos="2.20" departSpeed="0.00" departDelay="45.00" arrival="229.00" arrivalLane="end_0" arrivalPos="10.00" arrivalSpeed="10.00" duration="100.00" routeLength="507.80" waitSteps="46" timeLoss="69.23" rerouteNo="0" devices="tripinfo_moped.84" vType="moped" vaporized=""/>
    <tripinfo id="moped.87" depart="135.00" departLane="beg_1" departPos="2.20" departSpeed="0.00" departDelay="48.00" arrival="229.00" arrivalLane="end_0" arrivalPos="10.00" arrivalSpeed="9.91" duration="94.00" routeLength="507.80" waitSteps="41" timeLoss="61.47" rerouteNo="0" devices="tripinfo_moped.87" vType="moped" vaporized=""/>
    <tripinfo id="moped.81" depart="123.00" departLane="beg_0" departPos="2.20" departSpeed="0.00" departDelay="42.00" arrival="230.00" arrivalLane="end_0" arrivalPos="10.00" arrivalSpeed="10.75" duration="107.00" routeLength="507.80" waitSteps="49" timeLoss="69.53" rerouteNo="0" devices="tripinfo_moped.81" vType="moped" vaporized=""/>
    <tripinfo id="moped.72" depart="110.00" departLane="beg_1" departPos="2.20" departSpeed="0.00" departDelay="38.00" arrival="230.00" arrivalLane="end_1" arrivalPos="10.00" arrivalSpeed="11.18" duration="120.00" routeLength="507.80" waitSteps="57" timeLoss="74.44" rerouteNo="0" devices="tripinfo_moped.72" vType="moped" vaporized=""/>
    <tripinfo id="moped.82" depart="125.00" departLane="beg_1" departPos="2.20" departSpeed="0.00" departDelay="43.00" arrival="231.00" arrivalLane="end_1" arrivalPos="10.00" arrivalSpeed="10.89" duration="106.00" routeLength="507.80" waitSteps="48" timeLoss="70.74" rerouteNo="0" devices="tripinfo_moped.82" vType="moped" vaporized=""/>
    <tripinfo id="moped.85" depart="130.00" departLane="beg_1" departPos="2.20" departSpeed="0.00" departDelay="45.00" arrival="231.00" arrivalLane="end_1" arrivalPos="10.00" arrivalSpeed="10.78" duration="101.00" routeLength="507.80" waitSteps="37" timeLoss="61.11" rerouteNo="0" devices="tripinfo_moped.85" vType="moped" vaporized=""/>