<?xml version="1.0" encoding="UTF-8"?>

<!-- generated on Tue Oct 20 13:02:02 2015 by SUMO Version dev-SVN-r19113
<?xml version="1.0" encoding="UTF-8"?>

<configuration xmlns:xsi="http://www.w3.org/2001/XMLSchema-instance" xsi:noNamespaceSchemaLocation="http://sumo.dlr.de/xsd/sumoConfiguration.xsd">

    <input>
        <net-file value="net.net.xml"/>
        <route-files value="input_routes.rou.xml"/>
    </input>

    <output>
        <tripinfo-output value="tripinfos.xml"/>
    </output>

    <processing>
        <lateral-resolution value="1.1"/>
    </processing>

    <report>
        <xml-validation value="never"/>
        <no-step-log value="true"/>
    </report>

</configuration>
-->

<tripinfos xmlns:xsi="http://www.w3.org/2001/XMLSchema-instance" xsi:noNamespaceSchemaLocation="http://sumo.dlr.de/xsd/tripinfo_file.xsd">
    <tripinfo id="moped.0" depart="0.00" departLane="beg_0" departPos="2.20" departSpeed="0.00" departDelay="0.00" arrival="204.00" arrivalLane="end_0" arrivalPos="10.00" arrivalSpeed="3.94" duration="204.00" routeLength="507.80" waitSteps="157" timeLoss="172.89" rerouteNo="0" devices="tripinfo_moped.0" vType="moped" vaporized=""/>
    <tripinfo id="moped.2" depart="4.00" departLane="beg_1" departPos="2.20" departSpeed="0.00" departDelay="2.00" arrival="204.00" arrivalLane="end_0" arrivalPos="10.00" arrivalSpeed="4.15" duration="200.00" routeLength="507.80" waitSteps="150" timeLoss="164.42" rerouteNo="0" devices="tripinfo_moped.2" vType="moped" vaporized=""/>
    <tripinfo id="moped.1" depart="1.00" departLane="beg_1" departPos="2.20" departSpeed="0.00" departDelay="0.00" arrival="204.00" arrivalLane="end_0" arrivalPos="10.00" arrivalSpeed="4.01" duration="203.00" routeLength="507.80" waitSteps="146" timeLoss="158.04" rerouteNo="0" devices="tripinfo_moped.1" vType="moped" vaporized=""/>
    <tripinfo id="moped.10" depart="19.00" departLane="beg_1" departPos="2.20" departSpeed="0.00" departDelay="9.00" arrival="204.00" arrivalLane="end_1" arrivalPos="10.00" arrivalSpeed="4.35" duration="185.00" routeLength="507.80" waitSteps="139" timeLoss="154.38" rerouteNo="0" devices="tripinfo_moped.10" vType="moped" vaporized=""/>
    <tripinfo id="moped.4" depart="8.00" departLane="beg_0" departPos="2.20" departSpeed="0.00" departDelay="4.00" arrival="204.00" arrivalLane="end_1" arrivalPos="10.00" arrivalSpeed="3.74" duration="196.00" routeLength="507.80" waitSteps="147" timeLoss="162.41" rerouteNo="0" devices="tripinfo_moped.4" vType="moped" vaporized=""/>
    <tripinfo id="moped.3" depart="5.00" departLane="beg_0" departPos="2.20" departSpeed="0.00" departDelay="2.00" arrival="204.00" arrivalLane="end_1" arrivalPos="10.00" arrivalSpeed="3.91" duration="199.00" routeLength="507.80" waitSteps="149" timeLoss="168.47" rerouteNo="0" devices="tripinfo_moped.3" vType="moped" vaporized=""/>
    <tripinfo id="moped.13" depart="25.00" departLane="beg_0" departPos="2.20" departSpeed="0.00" departDelay="12.00" arrival="206.00" arrivalLane="end_1" arrivalPos="10.00" arrivalSpeed="5.14" duration="181.00" routeLength="507.80" waitSteps="132" timeLoss="150.42" rerouteNo="0" devices="tripinfo_moped.13" vType="moped" vaporized=""/>
    <tripinfo id="moped.11" depart="22.00" departLane="beg_0" departPos="2.20" departSpeed="0.00" departDelay="11.00" arrival="206.00" arrivalLane="end_1" arrivalPos="10.00" arrivalSpeed="4.76" duration="184.00" routeLength="507.80" waitSteps="130" timeLoss="150.06" rerouteNo="0" devices="tripinfo_moped.11" vType="moped" vaporized=""/>
    <tripinfo id="moped.8" depart="16.00" departLane="beg_0" departPos="2.20" departSpeed="0.00" departDelay="8.00" arrival="206.00" arrivalLane="end_0" arrivalPos="10.00" arrivalSpeed="4.81" duration="190.00" routeLength="507.80" waitSteps="131" timeLoss="144.94" rerouteNo="0" devices="tripinfo_moped.8" vType="moped" vaporized=""/>
    <tripinfo id="moped.6" depart="12.00" departLane="beg_0" departPos="2.20" departSpeed="0.00" departDelay="6.00" arrival="206.00" arrivalLane="end_0" arrivalPos="10.00" arrivalSpeed="5.02" duration="194.00" routeLength="507.80" waitSteps="140" timeLoss="161.75" rerouteNo="0" devices="tripinfo_moped.6" vType="moped" vaporized=""/>
    <tripinfo id="moped.12" depart="22.00" departLane="beg_1" departPos="2.20" departSpeed="0.00" departDelay="10.00" arrival="207.00" arrivalLane="end_1" arrivalPos="10.00" arrivalSpeed="4.92" duration="185.00" routeLength="507.80" waitSteps="135" timeLoss="152.66" rerouteNo="0" devices="tripinfo_moped.12" vType="moped" vaporized=""/>
    <tripinfo id="moped.5" depart="8.00" departLane="beg_1" departPos="2.20" departSpeed="0.00" departDelay="3.00" arrival="207.00" arrivalLane="end_0" arrivalPos="10.00" arrivalSpeed="4.74" duration="199.00" routeLength="507.80" waitSteps="113" timeLoss="124.43" rerouteNo="0" devices="tripinfo_moped.5" vType="moped" vaporized=""/>
    <tripinfo id="moped.7" depart="12.00" departLane="beg_1" departPos="2.20" departSpeed="0.00" departDelay="5.00" arrival="208.00" arrivalLane="end_0" arrivalPos="10.00" arrivalSpeed="5.43" duration="196.00" routeLength="507.80" waitSteps="127" timeLoss="140.38" rerouteNo="0" devices="tripinfo_moped.7" vType="moped" vaporized=""/>
    <tripinfo id="moped.14" depart="26.00" departLane="beg_1" departPos="2.20" departSpeed="0.00" departDelay="12.00" arrival="209.00" arrivalLane="end_1" arrivalPos="10.00" arrivalSpeed="5.91" duration="183.00" routeLength="507.80" waitSteps="129" timeLoss="145.14" rerouteNo="0" devices="tripinfo_moped.14" vType="moped" vaporized=""/>
    <tripinfo id="moped.21" depart="40.00" departLane="beg_1" departPos="2.20" departSpeed="0.00" departDelay="19.00" arrival="209.00" arrivalLane="end_1" arrivalPos="10.00" arrivalSpeed="5.66" duration="169.00" routeLength="507.80" waitSteps="117" timeLoss="133.25" rerouteNo="0" devices="tripinfo_moped.21" vType="moped" vaporized=""/>
    <tripinfo id="moped.20" depart="36.00" departLane="beg_1" departPos="2.20" departSpeed="0.00" departDelay="16.00" arrival="209.00" arrivalLane="end_1" arrivalPos="10.00" arrivalSpeed="5.34" duration="173.00" routeLength="507.80" waitSteps="118" timeLoss="138.14" rerouteNo="0" devices="tripinfo_moped.20" vType="moped" vaporized=""/>
    <tripinfo id="moped.22" depart="41.00" departLane="beg_0" departPos="2.20" departSpeed="0.00" departDelay="19.00" arrival="209.00" arrivalLane="end_0" arrivalPos="10.00" arrivalSpeed="6.32" duration="168.00" routeLength="507.80" waitSteps="112" timeLoss="128.02" rerouteNo="0" devices="tripinfo_moped.22" vType="moped" vaporized=""/>
    <tripinfo id="moped.9" depart="16.00" departLane="beg_1" departPos="2.20" departSpeed="0.00" departDelay="7.00" arrival="209.00" arrivalLane="end_0" arrivalPos="10.00" arrivalSpeed="5.61" duration="193.00" routeLength="507.80" waitSteps="116" timeLoss="128.37" rerouteNo="0" devices="tripinfo_moped.9" vType="moped" vaporized=""/>
    <tripinfo id="moped.17" depart="33.00" departLane="beg_0" departPos="2.20" departSpeed="0.00" departDelay="16.00" arrival="210.00" arrivalLane="end_0" arrivalPos="10.00" arrivalSpeed="6.23" duration="177.00" routeLength="507.80" waitSteps="118" timeLoss="132.56" rerouteNo="0" devices="tripinfo_moped.17" vType="moped" vaporized=""/>
    <tripinfo id="moped.23" depart="43.00" departLane="beg_1" departPos="2.20" departSpeed="0.00" departDelay="20.00" arrival="211.00" arrivalLane="end_0" arrivalPos="10.00" arrivalSpeed="6.56" duration="168.00" routeLength="507.80" waitSteps="98" timeLoss="112.67" rerouteNo="0" devices="tripinfo_moped.23" vType="moped" vaporized=""/>
    <tripinfo id="moped.30" depart="59.00" departLane="beg_0" departPos="2.20" departSpeed="0.00" departDelay="29.00" arrival="211.00" arrivalLane="end_0" arrivalPos="10.00" arrivalSpeed="6.51" duration="152.00" routeLength="507.80" waitSteps="94" timeLoss="121.30" rerouteNo="0" devices="tripinfo_moped.30" vType="moped" vaporized=""/>
    <tripinfo id="moped.19" depart="36.00" departLane="beg_0" departPos="2.20" departSpeed="0.00" departDelay="17.00" arrival="211.00" arrivalLane="end_1" arrivalPos="10.00" arrivalSpeed="6.37" duration="175.00" routeLength="507.80" waitSteps="122" timeLoss="144.19" rerouteNo="0" devices="tripinfo_moped.19" vType="moped" vaporized=""/>
    <tripinfo id="moped.15" depart="30.00" departLane="beg_0" departPos="2.20" departSpeed="0.00" departDelay="15.00" arrival="211.00" arrivalLane="end_1" arrivalPos="10.00" arrivalSpeed="5.87" duration="181.00" routeLength="507.80" waitSteps="117" timeLoss="133.83" rerouteNo="0" devices="tripinfo_moped.15" vType="moped" vaporized=""/>
    <tripinfo id="moped.18" depart="33.00" departLane="beg_1" departPos="2.20" departSpeed="0.00" departDelay="15.00" arrival="211.00" arrivalLane="end_1" arrivalPos="10.00" arrivalSpeed="5.66" duration="178.00" routeLength="507.80" waitSteps="115" timeLoss="132.51" rerouteNo="0" devices="tripinfo_moped.18" vType="moped" vaporized=""/>
    <tripinfo id="moped.28" depart="55.00" departLane="beg_0" departPos="2.20" departSpeed="0.00" departDelay="27.00" arrival="213.00" arrivalLane="end_1" arrivalPos="10.00" arrivalSpeed="7.04" duration="158.00" routeLength="507.80" waitSteps="109" timeLoss="127.21" rerouteNo="0" devices="tripinfo_moped.28" vType="moped" vaporized=""/>
    <tripinfo id="moped.16" depart="30.00" departLane="beg_1" departPos="2.20" departSpeed="0.00" departDelay="14.00" arrival="213.00" arrivalLane="end_1" arrivalPos="10.00" arrivalSpeed="6.66" duration="183.00" routeLength="507.80" waitSteps="110" timeLoss="125.01" rerouteNo="0" devices="tripinfo_moped.16" vType="moped" vaporized=""/>
    <tripinfo id="moped.27" depart="52.00" departLane="beg_1" departPos="2.20" departSpeed="0.00" departDelay="25.00" arrival="213.00" arrivalLane="end_1" arrivalPos="10.00" arrivalSpeed="7.00" duration="161.00" routeLength="507.80" waitSteps="101" timeLoss="117.57" rerouteNo="0" devices="tripinfo_moped.27" vType="moped" vaporized=""/>
    <tripinfo id="moped.25" depart="47.00" departLane="beg_1" departPos="2.20" departSpeed="0.00" departDelay="22.00" arrival="213.00" arrivalLane="end_0" arrivalPos="10.00" arrivalSpeed="7.04" duration="166.00" routeLength="507.80" waitSteps="93" timeLoss="106.03" rerouteNo="0" devices="tripinfo_moped.25" vType="moped" vaporized=""/>
    <tripinfo id="moped.26" depart="51.00" departLane="beg_0" departPos="2.20" departSpeed="0.00" departDelay="25.00" arrival="213.00" arrivalLane="end_0" arrivalPos="10.00" arrivalSpeed="7.32" duration="162.00" routeLength="507.80" waitSteps="97" timeLoss="112.78" rerouteNo="0" devices="tripinfo_moped.26" vType="moped" vaporized=""/>
    <tripinfo id="moped.24" depart="45.00" departLane="beg_0" departPos="2.20" departSpeed="0.00" departDelay="21.00" arrival="213.00" arrivalLane="end_0" arrivalPos="10.00" arrivalSpeed="6.41" duration="168.00" routeLength="507.80" waitSteps="78" timeLoss="90.72" rerouteNo="0" devices="tripinfo_moped.24" vType="moped" vaporized=""/>
    <tripinfo id="moped.29" depart="57.00" departLane="beg_1" departPos="2.20" departSpeed="0.00" departDelay="28.00" arrival="214.00" arrivalLane="end_0" arrivalPos="10.00" arrivalSpeed="6.77" duration="157.00" routeLength="507.80" waitSteps="96" timeLoss="110.90" rerouteNo="0" devices="tripinfo_moped.29" vType="moped" vaporized=""/>
    <tripinfo id="moped.33" depart="64.00" departLane="beg_1" departPos="2.20" departSpeed="0.00" departDelay="31.00" arrival="215.00" arrivalLane="end_1" arrivalPos="10.00" arrivalSpeed="7.74" duration="151.00" routeLength="507.80" waitSteps="97" timeLoss="120.22" rerouteNo="0" devices="tripinfo_moped.33" vType="moped" vaporized=""/>
    <tripinfo id="moped.31" depart="60.00" departLane="beg_1" departPos="2.20" departSpeed="0.00" departDelay="29.00" arrival="215.00" arrivalLane="end_1" arrivalPos="10.00" arrivalSpeed="6.96" duration="155.00" routeLength="507.80" waitSteps="104" timeLoss="124.32" rerouteNo="0" devices="tripinfo_moped.31" vType="moped" vaporized=""/>
    <tripinfo id="moped.36" depart="72.00" departLane="beg_1" departPos="2.20" departSpeed="0.00" departDelay="36.00" arrival="215.00" arrivalLane="end_0" arrivalPos="10.00" arrivalSpeed="7.54" duration="143.00" routeLength="507.80" waitSteps="86" timeLoss="102.70" rerouteNo="0" devices="tripinfo_moped.36" vType="moped" vaporized=""/>
    <tripinfo id="moped.32" depart="63.00" departLane="beg_0" departPos="2.20" departSpeed="0.00" departDelay="31.00" arrival="216.00" arrivalLane="end_1" arrivalPos="10.00" arrivalSpeed="7.06" duration="153.00" routeLength="507.80" waitSteps="97" timeLoss="116.50" rerouteNo="0" devices="tripinfo_moped.32" vType="moped" vaporized=""/>
    <tripinfo id="moped.37" depart="74.00" departLane="beg_0" departPos="2.20" departSpeed="0.00" departDelay="37.00" arrival="216.00" arrivalLane="end_0" arrivalPos="10.00" arrivalSpeed="7.76" duration="142.00" routeLength="507.80" waitSteps="78" timeLoss="111.04" rerouteNo="0" devices="tripinfo_moped.37" vType="moped" vaporized=""/>
    <tripinfo id="moped.43" depart="85.00" departLane="beg_1" departPos="2.20" departSpeed="0.00" departDelay="42.00" arrival="217.00" arrivalLane="end_1" arrivalPos="10.00" arrivalSpeed="8.47" duration="132.00" routeLength="507.80" waitSteps="78" timeLoss="98.71" rerouteNo="0" devices="tripinfo_moped.43" vType="moped" vaporized=""/>
    <tripinfo id="moped.34" depart="67.00" departLane="beg_1" departPos="2.20" departSpeed="0.00" departDelay="33.00" arrival="217.00" arrivalLane="end_1" arrivalPos="10.00" arrivalSpeed="6.95" duration="150.00" routeLength="507.80" waitSteps="95" timeLoss="112.71" rerouteNo="0" devices="tripinfo_moped.34" vType="moped" vaporized=""/>
    <tripinfo id="moped.42" depart="85.00" departLane="beg_0" departPos="2.20" departSpeed="0.00" departDelay="43.00" arrival="217.00" arrivalLane="end_0" arrivalPos="10.00" arrivalSpeed="8.39" duration="132.00" routeLength="507.80" waitSteps="81" timeLoss="101.04" rerouteNo="0" devices="tripinfo_moped.42" vType="moped" vaporized=""/>
    <tripinfo id="moped.35" depart="70.00" departLane="beg_0" departPos="2.20" departSpeed="0.00" departDelay="35.00" arrival="217.00" arrivalLane="end_0" arrivalPos="10.00" arrivalSpeed="7.78" duration="147.00" routeLength="507.80" waitSteps="94" timeLoss="111.99" rerouteNo="0" devices="tripinfo_moped.35" vType="moped" vaporized=""/>
    <tripinfo id="moped.39" depart="78.00" departLane="beg_1" departPos="2.20" departSpeed="0.00" departDelay="39.00" arrival="217.00" arrivalLane="end_0" arrivalPos="10.00" arrivalSpeed="7.09" duration="139.00" routeLength="507.80" waitSteps="73" timeLoss="86.67" rerouteNo="0" devices="tripinfo_moped.39" vType="moped" vaporized=""/>
    <tripinfo id="moped.45" depart="90.00" departLane="beg_0" departPos="2.20" departSpeed="0.00" departDelay="45.00" arrival="218.00" arrivalLane="end_0" arrivalPos="10.00" arrivalSpeed="7.78" duration="128.00" routeLength="507.80" waitSteps="72" timeLoss="97.39" rerouteNo="0" devices="tripinfo_moped.45" vType="moped" vaporized=""/>
    <tripinfo id="moped.41" depart="82.00" departLane="beg_1" departPos="2.20" departSpeed="0.00" departDelay="41.00" arrival="218.00" arrivalLane="end_1" arrivalPos="10.00" arrivalSpeed="7.98" duration="136.00" routeLength="507.80" waitSteps="74" timeLoss="93.35" rerouteNo="0" devices="tripinfo_moped.41" vType="moped" vaporized=""/>
    <tripinfo id="moped.44" depart="89.00" departLane="beg_1" departPos="2.20" departSpeed="0.00" departDelay="45.00" arrival="219.00" arrivalLane="end_1" arrivalPos="10.00" arrivalSpeed="8.48" duration="130.00" routeLength="507.80" waitSteps="73" timeLoss="97.23" rerouteNo="0" devices="tripinfo_moped.44" vType="moped" vaporized=""/>
    <tripinfo id="moped.38" depart="77.00" departLane="beg_0" departPos="2.20" departSpeed="0.00" departDelay="39.00" arrival="219.00" arrivalLane="end_1" arrivalPos="10.00" arrivalSpeed="8.55" duration="142.00" routeLength="507.80" waitSteps="89" timeLoss="111.14" rerouteNo="0" devices="tripinfo_moped.38" vType="moped" vaporized=""/>
    <tripinfo id="moped.53" depart="104.00" departLane="beg_0" departPos="2.20" departSpeed="0.00" departDelay="51.00" arrival="219.00" arrivalLane="end_1" arrivalPos="10.00" arrivalSpeed="8.26" duration="115.00" routeLength="507.80" waitSteps="63" timeLoss="84.28" rerouteNo="0" devices="tripinfo_moped.53" vType="moped" vaporized=""/>
    <tripinfo id="moped.46" depart="92.00" departLane="beg_1" departPos="2.20" departSpeed="0.00" departDelay="46.00" arrival="219.00" arrivalLane="end_0" arrivalPos="10.00" arrivalSpeed="7.62" duration="127.00" routeLength="507.80" waitSteps="69" timeLoss="89.91" rerouteNo="0" devices="tripinfo_moped.46" vType="moped" vaporized=""/>
    <tripinfo id="moped.40" depart="81.00" departLane="beg_0" departPos="2.20" departSpeed="0.00" departDelay="41.00" arrival="219.00" arrivalLane="end_0" arrivalPos="10.00" arrivalSpeed="7.89" duration="138.00" routeLength="507.80" waitSteps="79" timeLoss="104.31" rerouteNo="0" devices="tripinfo_moped.40" vType="moped" vaporized=""/>
    <tripinfo id="moped.57" depart="115.00" departLane="beg_0" departPos="2.20" departSpeed="0.00" departDelay="58.00" arrival="220.00" arrivalLane="end_0" arrivalPos="10.00" arrivalSpeed="9.09" duration="105.00" routeLength="507.80" waitSteps="48" timeLoss="74.12" rerouteNo="0" devices="tripinfo_moped.57" vType="moped" vaporized=""/>
    <tripinfo id="moped.51" depart="101.00" departLane="beg_0" departPos="2.20" departSpeed="0.00" departDelay="50.00" arrival="220.00" arrivalLane="end_1" arrivalPos="10.00" arrivalSpeed="8.44" duration="119.00" routeLength="507.80" waitSteps="61" timeLoss="88.42" rerouteNo="0" devices="tripinfo_moped.51" vType="moped" vaporized=""/>
    <tripinfo id="moped.60" depart="118.00" departLane="beg_0" departPos="2.20" departSpeed="0.00" departDelay="58.00" arrival="220.00" arrivalLane="end_1" arrivalPos="10.00" arrivalSpeed="8.30" duration="102.00" routeLength="507.80" waitSteps="47" timeLoss="71.44" rerouteNo="0" devices="tripinfo_moped.60" vType="moped" vaporized=""/>
    <tripinfo id="moped.47" depart="93.00" departLane="beg_0" departPos="2.20" departSpeed="0.00" departDelay="46.00" arrival="221.00" arrivalLane="end_0" arrivalPos="10.00" arrivalSpeed="8.08" duration="128.00" routeLength="507.80" waitSteps="60" timeLoss="75.29" rerouteNo="0" devices="tripinfo_moped.47" vType="moped" vaporized=""/>
    <tripinfo id="moped.55" depart="108.00" departLane="beg_0" departPos="2.20" departSpeed="0.00" departDelay="53.00" arrival="221.00" arrivalLane="end_0" arrivalPos="10.00" arrivalSpeed="7.72" duration="113.00" routeLength="507.80" waitSteps="57" timeLoss="75.94" rerouteNo="0" devices="tripinfo_moped.55" vType="moped" vaporized=""/>
    <tripinfo id="moped.54" depart="108.00" departLane="beg_1" departPos="2.20" departSpeed="0.00" departDelay="54.00" arrival="221.00" arrivalLane="end_1" arrivalPos="10.00" arrivalSpeed="9.49" duration="113.00" routeLength="507.80" waitSteps="56" timeLoss="76.17" rerouteNo="0" devices="tripinfo_moped.54" vType="moped" vaporized=""/>
    <tripinfo id="moped.52" depart="104.00" departLane="beg_1" departPos="2.20" departSpeed="0.00" departDelay="52.00" arrival="222.00" arrivalLane="end_1" arrivalPos="10.00" arrivalSpeed="8.51" duration="118.00" routeLength="507.80" waitSteps="60" timeLoss="82.96" rerouteNo="0" devices="tripinfo_moped.52" vType="moped" vaporized=""/>
    <tripinfo id="moped.59" depart="118.00" departLane="beg_1" departPos="2.20" departSpeed="0.00" departDelay="59.00" arrival="222.00" arrivalLane="end_1" arrivalPos="10.00" arrivalSpeed="8.47" duration="104.00" routeLength="507.80" waitSteps="45" timeLoss="63.58" rerouteNo="0" devices="tripinfo_moped.59" vType="moped" vaporized=""/>
    <tripinfo id="moped.58" depart="115.00" departLane="beg_1" departPos="2.20" departSpeed="0.00" departDelay="57.00" arrival="222.00" arrivalLane="end_0" arrivalPos="10.00" arrivalSpeed="9.05" duration="107.00" routeLength="507.80" waitSteps="50" timeLoss="72.51" rerouteNo="0" devices="tripinfo_moped.58" vType="moped" vaporized=""/>
    <tripinfo id="moped.48" depart="97.00" departLane="beg_0" departPos="2.20" departSpeed="0.00" departDelay="49.00" arrival="222.00" arrivalLane="end_0" arrivalPos="10.00" arrivalSpeed="8.45" duration="125.00" routeLength="507.80" waitSteps="51" timeLoss="66.90" rerouteNo="0" devices="tripinfo_moped.48" vType="moped" vaporized=""/>
    <tripinfo id="moped.49" depart="97.00" departLane="beg_1" departPos="2.20" departSpeed="0.00" departDelay="48.00" arrival="223.00" arrivalLane="end_0" arrivalPos="10.00" arrivalSpeed="7.39" duration="126.00" routeLength="507.80" waitSteps="43" timeLoss="59.46" rerouteNo="0" devices="tripinfo_moped.49" vType="moped" vaporized=""/>
    <tripinfo id="moped.62" depart="122.00" departLane="beg_1" departPos="2.20" departSpeed="0.00" departDelay="60.00" arrival="223.00" arrivalLane="end_1" arrivalPos="10.00" arrivalSpeed="9.95" duration="101.00" routeLength="507.80" waitSteps="45" timeLoss="65.37" rerouteNo="0" devices="tripinfo_moped.62" vType="moped" vaporized=""/>
    <tripinfo id="moped.56" depart="111.00" departLane="beg_0" departPos="2.20" departSpeed="0.00" departDelay="55.00" arrival="224.00" arrivalLane="end_1" arrivalPos="10.00" arrivalSpeed="9.09" duration="113.00" routeLength="507.80" waitSteps="44" timeLoss="59.91" rerouteNo="0" devices="tripinfo_moped.56" vType="moped" vaporized=""/>
    <tripinfo id="moped.63" depart="125.00" departLane="beg_1" departPos="2.20" departSpeed="0.00" departDelay="62.00" arrival="224.00" arrivalLane="end_1" arrivalPos="10.00" arrivalSpeed="9.08" duration="99.00" routeLength="507.80" waitSteps="40" timeLoss="60.75" rerouteNo="0" devices="tripinfo_moped.63" vType="moped" vaporized=""/>
    <tripinfo id="moped.69" depart="137.00" departLane="beg_1" departPos="2.20" departSpeed="0.00" departDelay="68.00" arrival="224.00" arrivalLane="end_1" arrivalPos="10.00" arrivalSpeed="8.61" duration="87.00" routeLength="507.80" waitSteps="31" timeLoss="52.64" rerouteNo="0" devices="tripinfo_moped.69" vType="moped" vaporized=""/>
    <tripinfo id="moped.64" depart="126.00" departLane="beg_0" departPos="2.20" departSpeed="0.00" departDelay="62.00" arrival="224.00" arrivalLane="end_0" arrivalPos="10.00" arrivalSpeed="9.88" duration="98.00" routeLength="507.80" waitSteps="35" timeLoss="52.19" rerouteNo="0" devices="tripinfo_moped.64" vType="moped" vaporized=""/>
    <tripinfo id="moped.50" depart="101.00" departLane="beg_1" departPos="2.20" departSpeed="0.00" departDelay="51.00" arrival="224.00" arrivalLane="end_0" arrivalPos="10.00" arrivalSpeed="7.42" duration="123.00" routeLength="507.80" waitSteps="44" timeLoss="57.97" rerouteNo="0" devices="tripinfo_moped.50" vType="moped" vaporized=""/>
    <tripinfo id="moped.61" depart="122.00" departLane="beg_0" departPos="2.20" departSpeed="0.00" departDelay="61.00" arrival="225.00" arrivalLane="end_0" arrivalPos="10.00" arrivalSpeed="8.85" duration="103.00" routeLength="507.80" waitSteps="42" timeLoss="72.15" rerouteNo="0" devices="tripinfo_moped.61" vType="moped" vaporized=""/>
    <tripinfo id="moped.66" depart="129.00" departLane="beg_0" departPos="2.20" departSpeed="0.00" departDelay="63.00" arrival="225.00" arrivalLane="end_0" arrivalPos="10.00" arrivalSpeed="9.40" duration="96.00" routeLength="507.80" waitSteps="27" timeLoss="44.93" rerouteNo="0" devices="tripinfo_moped.66" vType="moped" vaporized=""/>
    <tripinfo id="moped.68" depart="134.00" departLane="beg_0" departPos="2.20" departSpeed="0.00" departDelay="66.00" arrival="226.00" arrivalLane="end_0" arrivalPos="10.00" arrivalSpeed="9.82" duration="92.00" routeLength="507.80" waitSteps="39" timeLoss="58.73" rerouteNo="0" devices="tripinfo_moped.68" vType="moped" vaporized=""/>
    <tripinfo id="moped.67" depart="133.00" departLane="beg_1" departPos="2.20" departSpeed="0.00" departDelay="66.00" arrival="226.00" arrivalLane="end_0" arrivalPos="10.00" arrivalSpeed="9.53" duration="93.00" routeLength="507.80" waitSteps="27" timeLoss="43.66" rerouteNo="0" devices="tripinfo_moped.67" vType="moped" vaporized=""/>
    <tripinfo id="moped.70" depart="140.00" departLane="beg_1" departPos="2.20" departSpeed="0.00" departDelay="70.00" arrival="226.00" arrivalLane="end_1" arrivalPos="10.00" arrivalSpeed="9.31" duration="86.00" routeLength="507.80" waitSteps="30" timeLoss="51.19" rerouteNo="0" devices="tripinfo_moped.70" vType="moped" vaporized=""/>
    <tripinfo id="moped.71" depart="141.00" departLane="beg_0" departPos="2.20" departSpeed="0.00" departDelay="70.00" arrival="226.00" arrivalLane="end_1" arrivalPos="10.00" arrivalSpeed="9.01" duration="85.00" routeLength="507.80" waitSteps="20" timeLoss="44.88" rerouteNo="0" devices="tripinfo_moped.71" vType="moped" vaporized=""/>
    <tripinfo id="moped.73" depart="147.00" departLane="beg_1" departPos="2.20" departSpeed="0.00" departDelay="74.00" arrival="226.00" arrivalLane="end_1" arrivalPos="10.00" arrivalSpeed="9.68" duration="79.00" routeLength="507.80" waitSteps="22" timeLoss="47.43" rerouteNo="0" devices="tripinfo_moped.73" vType="moped" vaporized=""/>
    <tripinfo id="moped.76" depart="155.00" departLane="beg_0" departPos="2.20" departSpeed="0.00" departDelay="79.00" arrival="227.00" arrivalLane="end_1" arrivalPos="10.00" arrivalSpeed="8.99" duration="72.00" routeLength="507.80" waitSteps="14" timeLoss="38.50" rerouteNo="0" devices="tripinfo_moped.76" vType="moped" vaporized=""/>
    <tripinfo id="moped.65" depart="129.00" departLane="beg_1" departPos="2.20" departSpeed="0.00" departDelay="64.00" arrival="227.00" arrivalLane="end_0" arrivalPos="10.00" arrivalSpeed="8.50" duration="98.00" routeLength="507.80" waitSteps="24" timeLoss="40.87" rerouteNo="0" devices="tripinfo_moped.65" vType="moped" vaporized=""/>
    <tripinfo id="moped.74" depart="150.00" departLane="beg_0" departPos="2.20" departSpeed="0.00" departDelay="76.00" arrival="227.00" arrivalLane="end_0" arrivalPos="10.00" arrivalSpeed="9.84" duration="77.00" routeLength="507.80" waitSteps="17" timeLoss="34.43" rerouteNo="0" devices="tripinfo_moped.74" vType="moped" vaporized=""/>
    <tripinfo id="moped.72" depart="145.00" departLane="beg_0" departPos="2.20" departSpeed="0.00" departDelay="73.00" arrival="228.00" arrivalLane="end_0" arrivalPos="10.00" arrivalSpeed="9.42" duration="83.00" routeLength="507.80" waitSteps="20" timeLoss="38.02" rerouteNo="0" devices="tripinfo_moped.72" vType="moped" vaporized=""/>
    <tripinfo id="moped.75" depart="151.00" departLane="beg_1" departPos="2.20" departSpeed="0.00" departDelay="76.00" arrival="228.00" arrivalLane="end_1" arrivalPos="10.00" arrivalSpeed="9.72" duration="77.00" routeLength="507.80" waitSteps="19" timeLoss="38.04" rerouteNo="0" devices="tripinfo_moped.75" vType="moped" vaporized=""/>
    <tripinfo id="moped.78" depart="158.00" departLane="beg_1" departPos="2.20" departSpeed="0.00" departDelay="80.00" arrival="228.00" arrivalLane="end_1" arrivalPos="10.00" arrivalSpeed="11.22" duration="70.00" routeLength="507.80" waitSteps="14" timeLoss="33.52" rerouteNo="0" devices="tripinfo_moped.78" vType="moped" vaporized=""/>
    <tripinfo id="moped.83" depart="166.00" departLane="beg_0" departPos="2.20" departSpeed="0.00" departDelay="83.00" arrival="229.00" arrivalLane="end_1" arrivalPos="10.00" arrivalSpeed="10.26" duration="63.00" routeLength="507.80" waitSteps="0" timeLoss="21.72" rerouteNo="0" devices="tripinfo_moped.83" vType="moped" vaporized=""/>
    <tripinfo id="moped.82" depart="165.00" departLane="beg_1" departPos="2.20" departSpeed="0.00" departDelay="83.00" arrival="229.00" arrivalLane="end_1" arrivalPos="10.00" arrivalSpeed="10.73" duration="64.00" routeLength="507.80" waitSteps="8" timeLoss="28.85" rerouteNo="0" devices="tripinfo_moped.82" vType="moped" vaporized=""/>
    <tripinfo id="moped.80" depart="162.00" departLane="beg_1" departPos="2.20" departSpeed="0.00" departDelay="82.00" arrival="229.00" arrivalLane="end_1" arrivalPos="10.00" arrivalSpeed="10.56" duration="67.00" routeLength="507.80" waitSteps="13" timeLoss="33.62" rerouteNo="0" devices="tripinfo_moped.80" vType="moped" vaporized=""/>
    <tripinfo id="moped.81" depart="163.00" departLane="beg_0" departPos="2.20" departSpeed="0.00" departDelay="82.00" arrival="229.00" arrivalLane="end_0" arrivalPos="10.00" arrivalSpeed="10.87" duration="66.00" routeLength="507.80" waitSteps="6" timeLoss="28.63" rerouteNo="0" devices="tripinfo_moped.81" vType="moped" vaporized=""/>
    <tripinfo id="moped.79" depart="159.00" departLane="beg_0" departPos="2.20" departSpeed="0.00" departDelay="80.00" arrival="229.00" arrivalLane="end_0" arrivalPos="10.00" arrivalSpeed="10.45" duration="70.00" routeLength="507.80" waitSteps="17" timeLoss="39.09" rerouteNo="0" devices="tripinfo_moped.79" vType="moped" vaporized=""/>
    <tripinfo id="moped.77" depart="155.00" departLane="beg_1" departPos="2.20" departSpeed="0.00" departDelay="78.00" arrival="230.00" arrivalLane="end_0" arrivalPos="10.00" arrivalSpeed="10.40" duration="75.00" routeLength="507.80" waitSteps="15" timeLoss="35.60" rerouteNo="0" devices="tripinfo_moped.77" vType="moped" vaporized=""/>
    <tripinfo id="moped.87" depart="176.00" departLane="beg_0" departPos="2.20" departSpeed="0.00" departDelay="89.00" arrival="230.00" arrivalLane="end_0" arrivalPos="10.00" arrivalSpeed="10.97" duration="54.00" routeLength="507.80" waitSteps="0" timeLoss="21.41" rerouteNo="0" devices="tripinfo_moped.87" vType="moped" vaporized=""/>
    <tripinfo id="moped.90" depart="180.00" departLane="beg_0" departPos="2.20" departSpeed="0.00" departDelay="90.00" arrival="230.00" arrivalLane="end_0" arrivalPos="10.00" arrivalSpeed="10.55" duration="50.00" routeLength="507.80" waitSteps="0" timeLoss="15.05" rerouteNo="0" devices="tripinfo_moped.90" vType="moped" vaporized=""/>