<?xml version="1.0" encoding="UTF-8"?>

<!-- generated on Thu Mar  3 16:31:32 2016 by SUMO Version dev-SVN-r20128
<?xml version="1.0" encoding="UTF-8"?>

<configuration xmlns:xsi="http://www.w3.org/2001/XMLSchema-instance" xsi:noNamespaceSchemaLocation="http://sumo.dlr.de/xsd/sumoConfiguration.xsd">

    <input>
        <net-file value="net.net.xml"/>
        <route-files value="input_routes.rou.xml"/>
    </input>

    <output>
        <tripinfo-output value="tripinfos.xml"/>
    </output>

    <processing>
        <lateral-resolution value="1.1"/>
    </processing>

    <report>
        <xml-validation value="never"/>
        <no-step-log value="true"/>
    </report>

</configuration>
-->

<tripinfos xmlns:xsi="http://www.w3.org/2001/XMLSchema-instance" xsi:noNamespaceSchemaLocation="http://sumo.dlr.de/xsd/tripinfo_file.xsd">
    <tripinfo id="moped.0" depart="0.00" departLane="beg_0" departPos="2.20" departSpeed="0.00" departDelay="0.00" arrival="204.00" arrivalLane="end_0" arrivalPos="10.00" arrivalSpeed="4.28" duration="204.00" routeLength="507.80" waitSteps="158" timeLoss="172.86" rerouteNo="0" devices="tripinfo_moped.0" vType="moped" vaporized=""/>
    <tripinfo id="moped.4" depart="4.00" departLane="beg_0" departPos="2.20" departSpeed="0.00" departDelay="0.00" arrival="204.00" arrivalLane="end_0" arrivalPos="10.00" arrivalSpeed="4.60" duration="200.00" routeLength="507.80" waitSteps="150" timeLoss="166.32" rerouteNo="0" devices="tripinfo_moped.4" vType="moped" vaporized=""/>
    <tripinfo id="moped.2" depart="2.00" departLane="beg_0" departPos="2.20" departSpeed="0.00" departDelay="0.00" arrival="204.00" arrivalLane="end_0" arrivalPos="10.00" arrivalSpeed="4.01" duration="202.00" routeLength="507.80" waitSteps="152" timeLoss="166.49" rerouteNo="0" devices="tripinfo_moped.2" vType="moped" vaporized=""/>
    <tripinfo id="moped.1" depart="1.00" departLane="beg_1" departPos="2.20" departSpeed="0.00" departDelay="0.00" arrival="204.00" arrivalLane="end_1" arrivalPos="10.00" arrivalSpeed="4.19" duration="203.00" routeLength="507.80" waitSteps="146" timeLoss="157.82" rerouteNo="0" devices="tripinfo_moped.1" vType="moped" vaporized=""/>
    <tripinfo id="moped.11" depart="13.00" departLane="beg_1" departPos="2.20" departSpeed="0.00" departDelay="2.00" arrival="204.00" arrivalLane="end_1" arrivalPos="10.00" arrivalSpeed="3.81" duration="191.00" routeLength="507.80" waitSteps="140" timeLoss="157.01" rerouteNo="0" devices="tripinfo_moped.11" vType="moped" vaporized=""/>
    <tripinfo id="moped.6" depart="7.00" departLane="beg_1" departPos="2.20" departSpeed="0.00" departDelay="1.00" arrival="204.00" arrivalLane="end_1" arrivalPos="10.00" arrivalSpeed="4.45" duration="197.00" routeLength="507.80" waitSteps="149" timeLoss="164.73" rerouteNo="0" devices="tripinfo_moped.6" vType="moped" vaporized=""/>
    <tripinfo id="moped.3" depart="4.00" departLane="beg_1" departPos="2.20" departSpeed="0.00" departDelay="1.00" arrival="206.00" arrivalLane="end_1" arrivalPos="10.00" arrivalSpeed="5.07" duration="202.00" routeLength="507.80" waitSteps="144" timeLoss="171.38" rerouteNo="0" devices="tripinfo_moped.3" vType="moped" vaporized=""/>
    <tripinfo id="moped.10" depart="12.00" departLane="beg_0" departPos="2.20" departSpeed="0.00" departDelay="2.00" arrival="206.00" arrivalLane="end_0" arrivalPos="10.00" arrivalSpeed="4.79" duration="194.00" routeLength="507.80" waitSteps="140" timeLoss="163.40" rerouteNo="0" devices="tripinfo_moped.10" vType="moped" vaporized=""/>
    <tripinfo id="moped.8" depart="9.00" departLane="beg_0" departPos="2.20" departSpeed="0.00" departDelay="1.00" arrival="206.00" arrivalLane="end_0" arrivalPos="10.00" arrivalSpeed="4.61" duration="197.00" routeLength="507.80" waitSteps="139" timeLoss="151.99" rerouteNo="0" devices="tripinfo_moped.8" vType="moped" vaporized=""/>
    <tripinfo id="moped.15" depart="19.00" departLane="beg_1" departPos="2.20" departSpeed="0.00" departDelay="4.00" arrival="207.00" arrivalLane="end_1" arrivalPos="10.00" arrivalSpeed="5.08" duration="188.00" routeLength="507.80" waitSteps="126" timeLoss="140.79" rerouteNo="0" devices="tripinfo_moped.15" vType="moped" vaporized=""/>
    <tripinfo id="moped.13" depart="16.00" departLane="beg_1" departPos="2.20" departSpeed="0.00" departDelay="3.00" arrival="207.00" arrivalLane="end_1" arrivalPos="10.00" arrivalSpeed="4.66" duration="191.00" routeLength="507.80" waitSteps="144" timeLoss="160.38" rerouteNo="0" devices="tripinfo_moped.13" vType="moped" vaporized=""/>
    <tripinfo id="moped.12" depart="15.00" departLane="beg_0" departPos="2.20" departSpeed="0.00" departDelay="3.00" arrival="207.00" arrivalLane="end_0" arrivalPos="10.00" arrivalSpeed="5.28" duration="192.00" routeLength="507.80" waitSteps="134" timeLoss="159.64" rerouteNo="0" devices="tripinfo_moped.12" vType="moped" vaporized=""/>
    <tripinfo id="moped.20" depart="27.00" departLane="beg_0" departPos="2.20" departSpeed="0.00" departDelay="7.00" arrival="208.00" arrivalLane="end_0" arrivalPos="10.00" arrivalSpeed="5.55" duration="181.00" routeLength="507.80" waitSteps="127" timeLoss="146.13" rerouteNo="0" devices="tripinfo_moped.20" vType="moped" vaporized=""/>
    <tripinfo id="moped.9" depart="10.00" departLane="beg_1" departPos="2.20" departSpeed="0.00" departDelay="1.00" arrival="209.00" arrivalLane="end_1" arrivalPos="10.00" arrivalSpeed="6.15" duration="199.00" routeLength="507.80" waitSteps="121" timeLoss="134.16" rerouteNo="0" devices="tripinfo_moped.9" vType="moped" vaporized=""/>
    <tripinfo id="moped.22" depart="32.00" departLane="beg_1" departPos="2.20" departSpeed="0.00" departDelay="10.00" arrival="209.00" arrivalLane="end_1" arrivalPos="10.00" arrivalSpeed="5.40" duration="177.00" routeLength="507.80" waitSteps="120" timeLoss="137.27" rerouteNo="0" devices="tripinfo_moped.22" vType="moped" vaporized=""/>
    <tripinfo id="moped.19" depart="26.00" departLane="beg_1" departPos="2.20" departSpeed="0.00" departDelay="7.00" arrival="209.00" arrivalLane="end_1" arrivalPos="10.00" arrivalSpeed="4.73" duration="183.00" routeLength="507.80" waitSteps="129" timeLoss="153.21" rerouteNo="0" devices="tripinfo_moped.19" vType="moped" vaporized=""/>
    <tripinfo id="moped.14" depart="18.00" departLane="beg_0" departPos="2.20" departSpeed="0.00" departDelay="4.00" arrival="209.00" arrivalLane="end_0" arrivalPos="10.00" arrivalSpeed="6.38" duration="191.00" routeLength="507.80" waitSteps="136" timeLoss="152.99" rerouteNo="0" devices="tripinfo_moped.14" vType="moped" vaporized=""/>
    <tripinfo id="moped.7" depart="8.00" departLane="beg_0" departPos="2.20" departSpeed="0.00" departDelay="1.00" arrival="209.00" arrivalLane="end_0" arrivalPos="10.00" arrivalSpeed="6.11" duration="201.00" routeLength="507.80" waitSteps="132" timeLoss="144.92" rerouteNo="0" devices="tripinfo_moped.7" vType="moped" vaporized=""/>
    <tripinfo id="moped.27" depart="38.00" departLane="beg_1" departPos="2.20" departSpeed="0.00" departDelay="11.00" arrival="210.00" arrivalLane="end_1" arrivalPos="10.00" arrivalSpeed="5.77" duration="172.00" routeLength="507.80" waitSteps="113" timeLoss="128.75" rerouteNo="0" devices="tripinfo_moped.27" vType="moped" vaporized=""/>
    <tripinfo id="moped.5" depart="6.00" departLane="beg_0" departPos="2.20" departSpeed="0.00" departDelay="1.00" arrival="210.00" arrivalLane="end_0" arrivalPos="10.00" arrivalSpeed="6.27" duration="204.00" routeLength="507.80" waitSteps="115" timeLoss="129.52" rerouteNo="0" devices="tripinfo_moped.5" vType="moped" vaporized=""/>
    <tripinfo id="moped.30" depart="42.00" departLane="beg_1" departPos="2.20" departSpeed="0.00" departDelay="12.00" arrival="211.00" arrivalLane="end_1" arrivalPos="10.00" arrivalSpeed="5.95" duration="169.00" routeLength="507.80" waitSteps="116" timeLoss="138.34" rerouteNo="0" devices="tripinfo_moped.30" vType="moped" vaporized=""/>
    <tripinfo id="moped.16" depart="22.00" departLane="beg_1" departPos="2.20" departSpeed="0.00" departDelay="6.00" arrival="211.00" arrivalLane="end_1" arrivalPos="10.00" arrivalSpeed="5.80" duration="189.00" routeLength="507.80" waitSteps="117" timeLoss="131.30" rerouteNo="0" devices="tripinfo_moped.16" vType="moped" vaporized=""/>
    <tripinfo id="moped.18" depart="26.00" departLane="beg_0" departPos="2.20" departSpeed="0.00" departDelay="8.00" arrival="211.00" arrivalLane="end_0" arrivalPos="10.00" arrivalSpeed="6.30" duration="185.00" routeLength="507.80" waitSteps="124" timeLoss="139.23" rerouteNo="0" devices="tripinfo_moped.18" vType="moped" vaporized=""/>
    <tripinfo id="moped.17" depart="22.00" departLane="beg_0" departPos="2.20" departSpeed="0.00" departDelay="5.00" arrival="211.00" arrivalLane="end_0" arrivalPos="10.00" arrivalSpeed="6.02" duration="189.00" routeLength="507.80" waitSteps="122" timeLoss="144.28" rerouteNo="0" devices="tripinfo_moped.17" vType="moped" vaporized=""/>
    <tripinfo id="moped.37" depart="49.00" departLane="beg_1" departPos="2.20" departSpeed="0.00" departDelay="12.00" arrival="212.00" arrivalLane="end_1" arrivalPos="10.00" arrivalSpeed="6.29" duration="163.00" routeLength="507.80" waitSteps="111" timeLoss="132.39" rerouteNo="0" devices="tripinfo_moped.37" vType="moped" vaporized=""/>
    <tripinfo id="moped.32" depart="42.00" departLane="beg_0" departPos="2.20" departSpeed="0.00" departDelay="10.00" arrival="212.00" arrivalLane="end_0" arrivalPos="10.00" arrivalSpeed="7.18" duration="170.00" routeLength="507.80" waitSteps="114" timeLoss="133.68" rerouteNo="0" devices="tripinfo_moped.32" vType="moped" vaporized=""/>
    <tripinfo id="moped.26" depart="35.00" departLane="beg_0" departPos="2.20" departSpeed="0.00" departDelay="9.00" arrival="212.00" arrivalLane="end_0" arrivalPos="10.00" arrivalSpeed="6.69" duration="177.00" routeLength="507.80" waitSteps="115" timeLoss="128.31" rerouteNo="0" devices="tripinfo_moped.26" vType="moped" vaporized=""/>
    <tripinfo id="moped.31" depart="42.00" departLane="beg_0" departPos="2.20" departSpeed="0.00" departDelay="11.00" arrival="213.00" arrivalLane="end_1" arrivalPos="10.00" arrivalSpeed="6.47" duration="171.00" routeLength="507.80" waitSteps="115" timeLoss="140.26" rerouteNo="0" devices="tripinfo_moped.31" vType="moped" vaporized=""/>
    <tripinfo id="moped.29" depart="38.00" departLane="beg_1" departPos="2.20" departSpeed="0.00" departDelay="9.00" arrival="213.00" arrivalLane="end_1" arrivalPos="10.00" arrivalSpeed="6.62" duration="175.00" routeLength="507.80" waitSteps="113" timeLoss="128.64" rerouteNo="0" devices="tripinfo_moped.29" vType="moped" vaporized=""/>
    <tripinfo id="moped.21" depart="31.00" departLane="beg_0" departPos="2.20" departSpeed="0.00" departDelay="10.00" arrival="213.00" arrivalLane="end_0" arrivalPos="10.00" arrivalSpeed="7.29" duration="182.00" routeLength="507.80" waitSteps="120" timeLoss="146.08" rerouteNo="0" devices="tripinfo_moped.21" vType="moped" vaporized=""/>
    <tripinfo id="moped.28" depart="38.00" departLane="beg_0" departPos="2.20" departSpeed="0.00" departDelay="10.00" arrival="214.00" arrivalLane="end_0" arrivalPos="10.00" arrivalSpeed="7.75" duration="176.00" routeLength="507.80" waitSteps="114" timeLoss="145.09" rerouteNo="0" devices="tripinfo_moped.28" vType="moped" vaporized=""/>
    <tripinfo id="moped.35" depart="49.00" departLane="beg_0" departPos="2.20" departSpeed="0.00" departDelay="14.00" arrival="214.00" arrivalLane="end_0" arrivalPos="10.00" arrivalSpeed="7.61" duration="165.00" routeLength="507.80" waitSteps="113" timeLoss="130.33" rerouteNo="0" devices="tripinfo_moped.35" vType="moped" vaporized=""/>
    <tripinfo id="moped.36" depart="49.00" departLane="beg_0" departPos="2.20" departSpeed="0.00" departDelay="13.00" arrival="215.00" arrivalLane="end_1" arrivalPos="10.00" arrivalSpeed="6.87" duration="166.00" routeLength="507.80" waitSteps="108" timeLoss="125.79" rerouteNo="0" devices="tripinfo_moped.36" vType="moped" vaporized=""/>
    <tripinfo id="moped.33" depart="45.00" departLane="beg_1" departPos="2.20" departSpeed="0.00" departDelay="12.00" arrival="215.00" arrivalLane="end_1" arrivalPos="10.00" arrivalSpeed="6.93" duration="170.00" routeLength="507.80" waitSteps="107" timeLoss="139.20" rerouteNo="0" devices="tripinfo_moped.33" vType="moped" vaporized=""/>
    <tripinfo id="moped.38" depart="50.00" departLane="beg_1" departPos="2.20" departSpeed="0.00" departDelay="12.00" arrival="215.00" arrivalLane="end_1" arrivalPos="10.00" arrivalSpeed="7.13" duration="165.00" routeLength="507.80" waitSteps="107" timeLoss="134.23" rerouteNo="0" devices="tripinfo_moped.38" vType="moped" vaporized=""/>
    <tripinfo id="moped.23" depart="34.00" departLane="beg_0" departPos="2.20" departSpeed="0.00" departDelay="11.00" arrival="215.00" arrivalLane="end_0" arrivalPos="10.00" arrivalSpeed="7.24" duration="181.00" routeLength="507.80" waitSteps="111" timeLoss="125.70" rerouteNo="0" devices="tripinfo_moped.23" vType="moped" vaporized=""/>
    <tripinfo id="moped.34" depart="45.00" departLane="beg_0" departPos="2.20" departSpeed="0.00" departDelay="11.00" arrival="216.00" arrivalLane="end_0" arrivalPos="10.00" arrivalSpeed="6.92" duration="171.00" routeLength="507.80" waitSteps="112" timeLoss="133.69" rerouteNo="0" devices="tripinfo_moped.34" vType="moped" vaporized=""/>
    <tripinfo id="moped.40" depart="54.00" departLane="beg_0" departPos="2.20" departSpeed="0.00" departDelay="14.00" arrival="216.00" arrivalLane="end_0" arrivalPos="10.00" arrivalSpeed="7.22" duration="162.00" routeLength="507.80" waitSteps="110" timeLoss="128.41" rerouteNo="0" devices="tripinfo_moped.40" vType="moped" vaporized=""/>
    <tripinfo id="moped.25" depart="34.00" departLane="beg_0" departPos="2.20" departSpeed="0.00" departDelay="9.00" arrival="216.00" arrivalLane="end_1" arrivalPos="10.00" arrivalSpeed="7.45" duration="182.00" routeLength="507.80" waitSteps="104" timeLoss="122.66" rerouteNo="0" devices="tripinfo_moped.25" vType="moped" vaporized=""/>
    <tripinfo id="moped.42" depart="56.00" departLane="beg_1" departPos="2.20" departSpeed="0.00" departDelay="14.00" arrival="216.00" arrivalLane="end_1" arrivalPos="10.00" arrivalSpeed="7.41" duration="160.00" routeLength="507.80" waitSteps="107" timeLoss="129.46" rerouteNo="0" devices="tripinfo_moped.42" vType="moped" vaporized=""/>
    <tripinfo id="moped.43" depart="56.00" departLane="beg_0" departPos="2.20" departSpeed="0.00" departDelay="13.00" arrival="217.00" arrivalLane="end_0" arrivalPos="10.00" arrivalSpeed="8.08" duration="161.00" routeLength="507.80" waitSteps="108" timeLoss="127.72" rerouteNo="0" devices="tripinfo_moped.43" vType="moped" vaporized=""/>
    <tripinfo id="moped.41" depart="54.00" departLane="beg_1" departPos="2.20" departSpeed="0.00" departDelay="13.00" arrival="217.00" arrivalLane="end_1" arrivalPos="10.00" arrivalSpeed="8.15" duration="163.00" routeLength="507.80" waitSteps="104" timeLoss="120.48" rerouteNo="0" devices="tripinfo_moped.41" vType="moped" vaporized=""/>
    <tripinfo id="moped.44" depart="60.00" departLane="beg_1" departPos="2.20" departSpeed="0.00" departDelay="16.00" arrival="218.00" arrivalLane="end_1" arrivalPos="10.00" arrivalSpeed="7.69" duration="158.00" routeLength="507.80" waitSteps="103" timeLoss="125.53" rerouteNo="0" devices="tripinfo_moped.44" vType="moped" vaporized=""/>
    <tripinfo id="moped.39" depart="54.00" departLane="beg_0" departPos="2.20" departSpeed="0.00" departDelay="15.00" arrival="218.00" arrivalLane="end_0" arrivalPos="10.00" arrivalSpeed="7.98" duration="164.00" routeLength="507.80" waitSteps="96" timeLoss="111.52" rerouteNo="0" devices="tripinfo_moped.39" vType="moped" vaporized=""/>
    <tripinfo id="moped.51" depart="70.00" departLane="beg_0" departPos="2.20" departSpeed="0.00" departDelay="19.00" arrival="218.00" arrivalLane="end_0" arrivalPos="10.00" arrivalSpeed="8.40" duration="148.00" routeLength="507.80" waitSteps="98" timeLoss="117.31" rerouteNo="0" devices="tripinfo_moped.51" vType="moped" vaporized=""/>
    <tripinfo id="moped.46" depart="62.00" departLane="beg_1" departPos="2.20" departSpeed="0.00" departDelay="16.00" arrival="219.00" arrivalLane="end_1" arrivalPos="10.00" arrivalSpeed="8.14" duration="157.00" routeLength="507.80" waitSteps="97" timeLoss="119.64" rerouteNo="0" devices="tripinfo_moped.46" vType="moped" vaporized=""/>
    <tripinfo id="moped.45" depart="60.00" departLane="beg_0" departPos="2.20" departSpeed="0.00" departDelay="15.00" arrival="219.00" arrivalLane="end_1" arrivalPos="10.00" arrivalSpeed="7.99" duration="159.00" routeLength="507.80" waitSteps="98" timeLoss="128.11" rerouteNo="0" devices="tripinfo_moped.45" vType="moped" vaporized=""/>
    <tripinfo id="moped.52" depart="71.00" departLane="beg_0" departPos="2.20" departSpeed="0.00" departDelay="19.00" arrival="219.00" arrivalLane="end_0" arrivalPos="10.00" arrivalSpeed="8.76" duration="148.00" routeLength="507.80" waitSteps="94" timeLoss="112.57" rerouteNo="0" devices="tripinfo_moped.52" vType="moped" vaporized=""/>
    <tripinfo id="moped.57" depart="78.00" departLane="beg_1" departPos="2.20" departSpeed="0.00" departDelay="21.00" arrival="220.00" arrivalLane="end_1" arrivalPos="10.00" arrivalSpeed="8.73" duration="142.00" routeLength="507.80" waitSteps="84" timeLoss="111.16" rerouteNo="0" devices="tripinfo_moped.57" vType="moped" vaporized=""/>
    <tripinfo id="moped.53" depart="71.00" departLane="beg_1" departPos="2.20" departSpeed="0.00" departDelay="18.00" arrival="220.00" arrivalLane="end_1" arrivalPos="10.00" arrivalSpeed="7.77" duration="149.00" routeLength="507.80" waitSteps="98" timeLoss="118.43" rerouteNo="0" devices="tripinfo_moped.53" vType="moped" vaporized=""/>
    <tripinfo id="moped.47" depart="64.00" departLane="beg_0" departPos="2.20" departSpeed="0.00" departDelay="17.00" arrival="220.00" arrivalLane="end_0" arrivalPos="10.00" arrivalSpeed="9.10" duration="156.00" routeLength="507.80" waitSteps="88" timeLoss="103.05" rerouteNo="0" devices="tripinfo_moped.47" vType="moped" vaporized=""/>
    <tripinfo id="moped.55" depart="74.00" departLane="beg_0" departPos="2.20" departSpeed="0.00" departDelay="19.00" arrival="220.00" arrivalLane="end_0" arrivalPos="10.00" arrivalSpeed="9.07" duration="146.00" routeLength="507.80" waitSteps="89" timeLoss="108.56" rerouteNo="0" devices="tripinfo_moped.55" vType="moped" vaporized=""/>
    <tripinfo id="moped.58" depart="81.00" departLane="beg_0" departPos="2.20" departSpeed="0.00" departDelay="23.00" arrival="220.00" arrivalLane="end_0" arrivalPos="10.00" arrivalSpeed="8.05" duration="139.00" routeLength="507.80" waitSteps="83" timeLoss="104.80" rerouteNo="0" devices="tripinfo_moped.58" vType="moped" vaporized=""/>
    <tripinfo id="moped.24" depart="34.00" departLane="beg_1" departPos="2.20" departSpeed="0.00" departDelay="10.00" arrival="221.00" arrivalLane="end_1" arrivalPos="10.00" arrivalSpeed="6.35" duration="187.00" routeLength="507.80" waitSteps="95" timeLoss="109.56" rerouteNo="0" devices="tripinfo_moped.24" vType="moped" vaporized=""/>
    <tripinfo id="moped.61" depart="85.00" departLane="beg_0" departPos="2.20" departSpeed="0.00" departDelay="24.00" arrival="222.00" arrivalLane="end_0" arrivalPos="10.00" arrivalSpeed="9.71" duration="137.00" routeLength="507.80" waitSteps="83" timeLoss="105.99" rerouteNo="0" devices="tripinfo_moped.61" vType="moped" vaporized=""/>
    <tripinfo id="moped.60" depart="84.00" departLane="beg_1" departPos="2.20" departSpeed="0.00" departDelay="24.00" arrival="222.00" arrivalLane="end_0" arrivalPos="10.00" arrivalSpeed="9.19" duration="138.00" routeLength="507.80" waitSteps="82" timeLoss="107.04" rerouteNo="0" devices="tripinfo_moped.60" vType="moped" vaporized=""/>
    <tripinfo id="moped.56" depart="77.00" departLane="beg_0" departPos="2.20" departSpeed="0.00" departDelay="21.00" arrival="222.00" arrivalLane="end_0" arrivalPos="10.00" arrivalSpeed="8.99" duration="145.00" routeLength="507.80" waitSteps="77" timeLoss="92.12" rerouteNo="0" devices="tripinfo_moped.56" vType="moped" vaporized=""/>
    <tripinfo id="moped.48" depart="66.00" departLane="beg_1" departPos="2.20" departSpeed="0.00" departDelay="18.00" arrival="222.00" arrivalLane="end_1" arrivalPos="10.00" arrivalSpeed="8.53" duration="156.00" routeLength="507.80" waitSteps="84" timeLoss="97.27" rerouteNo="0" devices="tripinfo_moped.48" vType="moped" vaporized=""/>
    <tripinfo id="moped.59" depart="81.00" departLane="beg_1" departPos="2.20" departSpeed="0.00" departDelay="22.00" arrival="222.00" arrivalLane="end_1" arrivalPos="10.00" arrivalSpeed="9.11" duration="141.00" routeLength="507.80" waitSteps="82" timeLoss="100.34" rerouteNo="0" devices="tripinfo_moped.59" vType="moped" vaporized=""/>
    <tripinfo id="moped.54" depart="73.00" departLane="beg_1" departPos="2.20" departSpeed="0.00" departDelay="19.00" arrival="222.00" arrivalLane="end_1" arrivalPos="10.00" arrivalSpeed="7.52" duration="149.00" routeLength="507.80" waitSteps="88" timeLoss="112.67" rerouteNo="0" devices="tripinfo_moped.54" vType="moped" vaporized=""/>
    <tripinfo id="moped.62" depart="87.00" departLane="beg_1" departPos="2.20" departSpeed="0.00" departDelay="25.00" arrival="223.00" arrivalLane="end_1" arrivalPos="10.00" arrivalSpeed="9.54" duration="136.00" routeLength="507.80" waitSteps="81" timeLoss="100.96" rerouteNo="0" devices="tripinfo_moped.62" vType="moped" vaporized=""/>
    <tripinfo id="moped.67" depart="96.00" departLane="beg_1" departPos="2.20" departSpeed="0.00" departDelay="29.00" arrival="224.00" arrivalLane="end_1" arrivalPos="10.00" arrivalSpeed="9.94" duration="128.00" routeLength="507.80" waitSteps="63" timeLoss="77.95" rerouteNo="0" devices="tripinfo_moped.67" vType="moped" vaporized=""/>
    <tripinfo id="moped.50" depart="70.00" departLane="beg_1" departPos="2.20" departSpeed="0.00" departDelay="20.00" arrival="224.00" arrivalLane="end_1" arrivalPos="10.00" arrivalSpeed="7.79" duration="154.00" routeLength="507.80" waitSteps="75" timeLoss="88.70" rerouteNo="0" devices="tripinfo_moped.50" vType="moped" vaporized=""/>
    <tripinfo id="moped.49" depart="68.00" departLane="beg_0" departPos="2.20" departSpeed="0.00" departDelay="19.00" arrival="224.00" arrivalLane="end_0" arrivalPos="10.00" arrivalSpeed="7.30" duration="156.00" routeLength="507.80" waitSteps="74" timeLoss="88.67" rerouteNo="0" devices="tripinfo_moped.49" vType="moped" vaporized=""/>
    <tripinfo id="moped.63" depart="88.00" departLane="beg_0" departPos="2.20" departSpeed="0.00" departDelay="25.00" arrival="224.00" arrivalLane="end_0" arrivalPos="10.00" arrivalSpeed="10.26" duration="136.00" routeLength="507.80" waitSteps="77" timeLoss="97.19" rerouteNo="0" devices="tripinfo_moped.63" vType="moped" vaporized=""/>
    <tripinfo id="moped.64" depart="91.00" departLane="beg_0" departPos="2.20" departSpeed="0.00" departDelay="27.00" arrival="224.00" arrivalLane="end_0" arrivalPos="10.00" arrivalSpeed="9.94" duration="133.00" routeLength="507.80" waitSteps="71" timeLoss="87.26" rerouteNo="0" devices="tripinfo_moped.64" vType="moped" vaporized=""/>
    <tripinfo id="moped.66" depart="92.00" departLane="beg_0" departPos="2.20" departSpeed="0.00" departDelay="26.00" arrival="225.00" arrivalLane="end_0" arrivalPos="10.00" arrivalSpeed="8.45" duration="133.00" routeLength="507.80" waitSteps="66" timeLoss="81.94" rerouteNo="0" devices="tripinfo_moped.66" vType="moped" vaporized=""/>
    <tripinfo id="moped.73" depart="106.00" departLane="beg_0" departPos="2.20" departSpeed="0.00" departDelay="33.00" arrival="225.00" arrivalLane="end_0" arrivalPos="10.00" arrivalSpeed="10.15" duration="119.00" routeLength="507.80" waitSteps="63" timeLoss="87.46" rerouteNo="0" devices="tripinfo_moped.73" vType="moped" vaporized=""/>
    <tripinfo id="moped.69" depart="99.00" departLane="beg_1" departPos="2.20" departSpeed="0.00" departDelay="30.00" arrival="225.00" arrivalLane="end_1" arrivalPos="10.00" arrivalSpeed="10.00" duration="126.00" routeLength="507.80" waitSteps="69" timeLoss="91.42" rerouteNo="0" devices="tripinfo_moped.69" vType="moped" vaporized=""/>
    <tripinfo id="moped.71" depart="101.00" departLane="beg_1" departPos="2.20" departSpeed="0.00" departDelay="30.00" arrival="225.00" arrivalLane="end_1" arrivalPos="10.00" arrivalSpeed="9.71" duration="124.00" routeLength="507.80" waitSteps="62" timeLoss="83.94" rerouteNo="0" devices="tripinfo_moped.71" vType="moped" vaporized=""/>
    <tripinfo id="moped.68" depart="97.00" departLane="beg_0" departPos="2.20" departSpeed="0.00" departDelay="29.00" arrival="226.00" arrivalLane="end_0" arrivalPos="10.00" arrivalSpeed="9.84" duration="129.00" routeLength="507.80" waitSteps="74" timeLoss="95.84" rerouteNo="0" devices="tripinfo_moped.68" vType="moped" vaporized=""/>
    <tripinfo id="moped.65" depart="92.00" departLane="beg_1" departPos="2.20" departSpeed="0.00" departDelay="27.00" arrival="226.00" arrivalLane="end_1" arrivalPos="10.00" arrivalSpeed="8.55" duration="134.00" routeLength="507.80" waitSteps="62" timeLoss="76.55" rerouteNo="0" devices="tripinfo_moped.65" vType="moped" vaporized=""/>
    <tripinfo id="moped.74" depart="106.00" departLane="beg_1" departPos="2.20" departSpeed="0.00" departDelay="32.00" arrival="227.00" arrivalLane="end_1" arrivalPos="10.00" arrivalSpeed="9.99" duration="121.00" routeLength="507.80" waitSteps="62" timeLoss="78.21" rerouteNo="0" devices="tripinfo_moped.74" vType="moped" vaporized=""/>
    <tripinfo id="moped.75" depart="109.00" departLane="beg_1" departPos="2.20" departSpeed="0.00" departDelay="34.00" arrival="227.00" arrivalLane="end_1" arrivalPos="10.00" arrivalSpeed="9.78" duration="118.00" routeLength="507.80" waitSteps="62" timeLoss="79.39" rerouteNo="0" devices="tripinfo_moped.75" vType="moped" vaporized=""/>
    <tripinfo id="moped.79" depart="114.00" departLane="beg_1" departPos="2.20" departSpeed="0.00" departDelay="35.00" arrival="227.00" arrivalLane="end_1" arrivalPos="10.00" arrivalSpeed="9.41" duration="113.00" routeLength="507.80" waitSteps="59" timeLoss="82.30" rerouteNo="0" devices="tripinfo_moped.79" vType="moped" vaporized=""/>
    <tripinfo id="moped.72" depart="104.00" departLane="beg_0" departPos="2.20" departSpeed="0.00" departDelay="32.00" arrival="227.00" arrivalLane="end_0" arrivalPos="10.00" arrivalSpeed="9.68" duration="123.00" routeLength="507.80" waitSteps="58" timeLoss="77.75" rerouteNo="0" devices="tripinfo_moped.72" vType="moped" vaporized=""/>
    <tripinfo id="moped.76" depart="109.00" departLane="beg_0" departPos="2.20" departSpeed="0.00" departDelay="33.00" arrival="227.00" arrivalLane="end_0" arrivalPos="10.00" arrivalSpeed="10.19" duration="118.00" routeLength="507.80" waitSteps="58" timeLoss="84.29" rerouteNo="0" devices="tripinfo_moped.76" vType="moped" vaporized=""/>
    <tripinfo id="moped.70" depart="100.00" departLane="beg_0" departPos="2.20" departSpeed="0.00" departDelay="30.00" arrival="227.00" arrivalLane="end_0" arrivalPos="10.00" arrivalSpeed="9.94" duration="127.00" routeLength="507.80" waitSteps="72" timeLoss="92.60" rerouteNo="0" devices="tripinfo_moped.70" vType="moped" vaporized=""/>
    <tripinfo id="moped.81" depart="118.00" departLane="beg_0" departPos="2.20" departSpeed="0.00" departDelay="37.00" arrival="228.00" arrivalLane="end_0" arrivalPos="10.00" arrivalSpeed="9.46" duration="110.00" routeLength="507.80" waitSteps="53" timeLoss="73.08" rerouteNo="0" devices="tripinfo_moped.81" vType="moped" vaporized=""/>
    <tripinfo id="moped.80" depart="117.00" departLane="beg_1" departPos="2.20" departSpeed="0.00" departDelay="37.00" arrival="229.00" arrivalLane="end_1" arrivalPos="10.00" arrivalSpeed="10.51" duration="112.00" routeLength="507.80" waitSteps="57" timeLoss="78.22" rerouteNo="0" devices="tripinfo_moped.80" vType="moped" vaporized=""/>
    <tripinfo id="moped.83" depart="119.00" departLane="beg_1" departPos="2.20" departSpeed="0.00" departDelay="36.00" arrival="229.00" arrivalLane="end_1" arrivalPos="10.00" arrivalSpeed="10.51" duration="110.00" routeLength="507.80" waitSteps="51" timeLoss="68.71" rerouteNo="0" devices="tripinfo_moped.83" vType="moped" vaporized=""/>
    <tripinfo id="moped.84" depart="121.00" departLane="beg_0" departPos="2.20" departSpeed="0.00" departDelay="37.00" arrival="229.00" arrivalLane="end_1" arrivalPos="10.00" arrivalSpeed="10.73" duration="108.00" routeLength="507.80" waitSteps="53" timeLoss="77.03" rerouteNo="0" devices="tripinfo_moped.84" vType="moped" vaporized=""/>
    <tripinfo id="moped.77" depart="111.00" departLane="beg_0" departPos="2.20" departSpeed="0.00" departDelay="34.00" arrival="229.00" arrivalLane="end_0" arrivalPos="10.00" arrivalSpeed="10.46" duration="118.00" routeLength="507.80" waitSteps="61" timeLoss="78.95" rerouteNo="0" devices="tripinfo_moped.77" vType="moped" vaporized=""/>
    <tripinfo id="moped.78" depart="114.00" departLane="beg_0" departPos="2.20" departSpeed="0.00" departDelay="36.00" arrival="229.00" arrivalLane="end_0" arrivalPos="10.00" arrivalSpeed="9.79" duration="115.00" routeLength="507.80" waitSteps="55" timeLoss="78.98" rerouteNo="0" devices="tripinfo_moped.78" vType="moped" vaporized=""/>
    <tripinfo id="moped.82" depart="119.00" departLane="beg_0" departPos="2.20" departSpeed="0.00" departDelay="37.00" arrival="230.00" arrivalLane="end_0" arrivalPos="10.00" arrivalSpeed="10.20" duration="111.00" routeLength="507.80" waitSteps="52" timeLoss="75.75" rerouteNo="0" devices="tripinfo_moped.82" vType="moped" vaporized=""/>
    <tripinfo id="moped.89" depart="129.00" departLane="beg_1" departPos="2.20" departSpeed="0.00" departDelay="40.00" arrival="230.00" arrivalLane="end_1" arrivalPos="10.00" arrivalSpeed="10.62" duration="101.00" routeLength="507.80" waitSteps="43" timeLoss="66.44" rerouteNo="0" devices="tripinfo_moped.89" vType="moped" vaporized=""/>