<?xml version="1.0" encoding="UTF-8"?>

<!-- generated on Fri Oct 16 13:50:36 2015 by SUMO Version dev-SVN-r19063
<?xml version="1.0" encoding="UTF-8"?>

<configuration xmlns:xsi="http://www.w3.org/2001/XMLSchema-instance" xsi:noNamespaceSchemaLocation="http://sumo.dlr.de/xsd/sumoConfiguration.xsd">

    <input>
        <net-file value="net.net.xml"/>
        <route-files value="input_routes.rou.xml"/>
    </input>

    <output>
        <fcd-output value="fcd.xml"/>
        <tripinfo-output value="tripinfos.xml"/>
    </output>

    <processing>
        <lateral-resolution value="1.1"/>
    </processing>

    <report>
        <xml-validation value="never"/>
        <no-step-log value="true"/>
    </report>

</configuration>
-->

<tripinfos xmlns:xsi="http://www.w3.org/2001/XMLSchema-instance" xsi:noNamespaceSchemaLocation="http://sumo.dlr.de/xsd/tripinfo_file.xsd">
    <tripinfo id="moped.0" depart="0.00" departLane="beg_0" departPos="2.20" departSpeed="0.00" departDelay="0.00" arrival="204.00" arrivalLane="end_0" arrivalPos="10.00" arrivalSpeed="3.79" duration="204.00" routeLength="507.80" waitSteps="157" timeLoss="172.95" rerouteNo="0" devices="tripinfo_moped.0" vType="moped" vaporized=""/>
    <tripinfo id="moped.1" depart="1.00" departLane="beg_1" departPos="2.20" departSpeed="0.00" departDelay="0.00" arrival="204.00" arrivalLane="end_1" arrivalPos="10.00" arrivalSpeed="4.79" duration="203.00" routeLength="507.80" waitSteps="146" timeLoss="157.78" rerouteNo="0" devices="tripinfo_moped.1" vType="moped" vaporized=""/>
    <tripinfo id="moped.2" depart="4.00" departLane="beg_1" departPos="2.20" departSpeed="0.00" departDelay="2.00" arrival="204.00" arrivalLane="end_1" arrivalPos="10.00" arrivalSpeed="4.87" duration="200.00" routeLength="507.80" waitSteps="150" timeLoss="164.31" rerouteNo="0" devices="tripinfo_moped.2" vType="moped" vaporized=""/>
    <tripinfo id="moped.5" depart="8.00" departLane="beg_1" departPos="2.20" departSpeed="0.00" departDelay="3.00" arrival="206.00" arrivalLane="end_1" arrivalPos="10.00" arrivalSpeed="5.47" duration="198.00" routeLength="507.80" waitSteps="114" timeLoss="123.30" rerouteNo="0" devices="tripinfo_moped.5" vType="moped" vaporized=""/>
    <tripinfo id="moped.3" depart="5.00" departLane="beg_0" departPos="2.20" departSpeed="0.00" departDelay="2.00" arrival="207.00" arrivalLane="end_0" arrivalPos="10.00" arrivalSpeed="5.19" duration="202.00" routeLength="507.80" waitSteps="155" timeLoss="171.24" rerouteNo="0" devices="tripinfo_moped.3" vType="moped" vaporized=""/>
    <tripinfo id="moped.7" depart="12.00" departLane="beg_1" departPos="2.20" departSpeed="0.00" departDelay="5.00" arrival="208.00" arrivalLane="end_1" arrivalPos="10.00" arrivalSpeed="6.39" duration="196.00" routeLength="507.80" waitSteps="113" timeLoss="139.92" rerouteNo="0" devices="tripinfo_moped.7" vType="moped" vaporized=""/>
    <tripinfo id="moped.4" depart="8.00" departLane="beg_0" departPos="2.20" departSpeed="0.00" departDelay="4.00" arrival="209.00" arrivalLane="end_0" arrivalPos="10.00" arrivalSpeed="6.12" duration="201.00" routeLength="507.80" waitSteps="150" timeLoss="167.06" rerouteNo="0" devices="tripinfo_moped.4" vType="moped" vaporized=""/>
    <tripinfo id="moped.6" depart="12.00" departLane="beg_0" departPos="2.20" departSpeed="0.00" departDelay="6.00" arrival="210.00" arrivalLane="end_0" arrivalPos="10.00" arrivalSpeed="6.37" duration="198.00" routeLength="507.80" waitSteps="148" timeLoss="165.74" rerouteNo="0" devices="tripinfo_moped.6" vType="moped" vaporized=""/>
    <tripinfo id="moped.9" depart="16.00" departLane="beg_1" departPos="2.20" departSpeed="0.00" departDelay="7.00" arrival="210.00" arrivalLane="end_1" arrivalPos="10.00" arrivalSpeed="7.16" duration="194.00" routeLength="507.80" waitSteps="112" timeLoss="129.18" rerouteNo="0" devices="tripinfo_moped.9" vType="moped" vaporized=""/>
    <tripinfo id="moped.10" depart="19.00" departLane="beg_1" departPos="2.20" departSpeed="0.00" departDelay="9.00" arrival="211.00" arrivalLane="end_0" arrivalPos="10.00" arrivalSpeed="6.99" duration="192.00" routeLength="507.80" waitSteps="112" timeLoss="162.05" rerouteNo="0" devices="tripinfo_moped.10" vType="moped" vaporized=""/>
    <tripinfo id="moped.12" depart="23.00" departLane="beg_1" departPos="2.20" departSpeed="0.00" departDelay="11.00" arrival="213.00" arrivalLane="end_1" arrivalPos="10.00" arrivalSpeed="7.67" duration="190.00" routeLength="507.80" waitSteps="111" timeLoss="157.81" rerouteNo="0" devices="tripinfo_moped.12" vType="moped" vaporized=""/>
    <tripinfo id="moped.14" depart="26.00" departLane="beg_1" departPos="2.20" departSpeed="0.00" departDelay="12.00" arrival="215.00" arrivalLane="end_1" arrivalPos="10.00" arrivalSpeed="8.35" duration="189.00" routeLength="507.80" waitSteps="110" timeLoss="151.11" rerouteNo="0" devices="tripinfo_moped.14" vType="moped" vaporized=""/>
    <tripinfo id="moped.8" depart="16.00" departLane="beg_0" departPos="2.20" departSpeed="0.00" departDelay="8.00" arrival="216.00" arrivalLane="end_0" arrivalPos="10.00" arrivalSpeed="4.23" duration="200.00" routeLength="507.80" waitSteps="137" timeLoss="154.76" rerouteNo="0" devices="tripinfo_moped.8" vType="moped" vaporized=""/>
    <tripinfo id="moped.16" depart="29.00" departLane="beg_1" departPos="2.20" departSpeed="0.00" departDelay="13.00" arrival="217.00" arrivalLane="end_1" arrivalPos="10.00" arrivalSpeed="8.59" duration="188.00" routeLength="507.80" waitSteps="110" timeLoss="129.57" rerouteNo="0" devices="tripinfo_moped.16" vType="moped" vaporized=""/>
    <tripinfo id="moped.17" depart="32.00" departLane="beg_1" departPos="2.20" departSpeed="0.00" departDelay="15.00" arrival="218.00" arrivalLane="end_1" arrivalPos="10.00" arrivalSpeed="9.46" duration="186.00" routeLength="507.80" waitSteps="110" timeLoss="141.30" rerouteNo="0" devices="tripinfo_moped.17" vType="moped" vaporized=""/>
    <tripinfo id="moped.11" depart="22.00" departLane="beg_0" departPos="2.20" departSpeed="0.00" departDelay="11.00" arrival="218.00" arrivalLane="end_0" arrivalPos="10.00" arrivalSpeed="4.82" duration="196.00" routeLength="507.80" waitSteps="136" timeLoss="161.91" rerouteNo="0" devices="tripinfo_moped.11" vType="moped" vaporized=""/>
    <tripinfo id="moped.19" depart="35.00" departLane="beg_1" departPos="2.20" departSpeed="0.00" departDelay="16.00" arrival="220.00" arrivalLane="end_1" arrivalPos="10.00" arrivalSpeed="10.12" duration="185.00" routeLength="507.80" waitSteps="110" timeLoss="154.07" rerouteNo="0" devices="tripinfo_moped.19" vType="moped" vaporized=""/>
    <tripinfo id="moped.13" depart="25.00" departLane="beg_0" departPos="2.20" departSpeed="0.00" departDelay="12.00" arrival="220.00" arrivalLane="end_0" arrivalPos="10.00" arrivalSpeed="5.36" duration="195.00" routeLength="507.80" waitSteps="136" timeLoss="164.40" rerouteNo="0" devices="tripinfo_moped.13" vType="moped" vaporized=""/>
    <tripinfo id="moped.21" depart="39.00" departLane="beg_1" departPos="2.20" departSpeed="0.00" departDelay="18.00" arrival="221.00" arrivalLane="end_1" arrivalPos="10.00" arrivalSpeed="9.99" duration="182.00" routeLength="507.80" waitSteps="111" timeLoss="146.34" rerouteNo="0" devices="tripinfo_moped.21" vType="moped" vaporized=""/>
    <tripinfo id="moped.15" depart="29.00" departLane="beg_0" departPos="2.20" departSpeed="0.00" departDelay="14.00" arrival="222.00" arrivalLane="end_0" arrivalPos="10.00" arrivalSpeed="5.85" duration="193.00" routeLength="507.80" waitSteps="125" timeLoss="146.07" rerouteNo="0" devices="tripinfo_moped.15" vType="moped" vaporized=""/>
    <tripinfo id="moped.18" depart="33.00" departLane="beg_0" departPos="2.20" departSpeed="0.00" departDelay="15.00" arrival="225.00" arrivalLane="end_0" arrivalPos="10.00" arrivalSpeed="7.07" duration="192.00" routeLength="507.80" waitSteps="125" timeLoss="146.19" rerouteNo="0" devices="tripinfo_moped.18" vType="moped" vaporized=""/>
    <tripinfo id="moped.24" depart="43.00" departLane="beg_1" departPos="2.20" departSpeed="0.00" departDelay="19.00" arrival="225.00" arrivalLane="end_1" arrivalPos="10.00" arrivalSpeed="6.49" duration="182.00" routeLength="507.80" waitSteps="94" timeLoss="104.50" rerouteNo="0" devices="tripinfo_moped.24" vType="moped" vaporized=""/>
    <tripinfo id="moped.26" depart="46.00" departLane="beg_1" departPos="2.20" departSpeed="0.00" departDelay="20.00" arrival="226.00" arrivalLane="end_1" arrivalPos="10.00" arrivalSpeed="7.66" duration="180.00" routeLength="507.80" waitSteps="94" timeLoss="131.14" rerouteNo="0" devices="tripinfo_moped.26" vType="moped" vaporized=""/>
    <tripinfo id="moped.20" depart="36.00" departLane="beg_0" departPos="2.20" departSpeed="0.00" departDelay="16.00" arrival="227.00" arrivalLane="end_0" arrivalPos="10.00" arrivalSpeed="7.57" duration="191.00" routeLength="507.80" waitSteps="124" timeLoss="155.81" rerouteNo="0" devices="tripinfo_moped.20" vType="moped" vaporized=""/>
    <tripinfo id="moped.22" depart="40.00" departLane="beg_0" departPos="2.20" departSpeed="0.00" departDelay="18.00" arrival="228.00" arrivalLane="end_0" arrivalPos="10.00" arrivalSpeed="6.93" duration="188.00" routeLength="507.80" waitSteps="123" timeLoss="148.34" rerouteNo="0" devices="tripinfo_moped.22" vType="moped" vaporized=""/>
    <tripinfo id="moped.27" depart="50.00" departLane="beg_1" departPos="2.20" departSpeed="0.00" departDelay="23.00" arrival="228.00" arrivalLane="end_1" arrivalPos="10.00" arrivalSpeed="8.76" duration="178.00" routeLength="507.80" waitSteps="93" timeLoss="134.26" rerouteNo="0" devices="tripinfo_moped.27" vType="moped" vaporized=""/>
    <tripinfo id="moped.30" depart="56.00" departLane="beg_1" departPos="2.20" departSpeed="0.00" departDelay="26.00" arrival="229.00" arrivalLane="end_1" arrivalPos="10.00" arrivalSpeed="8.64" duration="173.00" routeLength="507.80" waitSteps="92" timeLoss="142.42" rerouteNo="0" devices="tripinfo_moped.30" vType="moped" vaporized=""/>
    <tripinfo id="moped.29" depart="54.00" departLane="beg_0" departPos="2.20" departSpeed="0.00" departDelay="25.00" arrival="230.00" arrivalLane="end_0" arrivalPos="10.00" arrivalSpeed="8.32" duration="176.00" routeLength="507.80" waitSteps="109" timeLoss="129.38" rerouteNo="0" devices="tripinfo_moped.29" vType="moped" vaporized=""/>
    <tripinfo id="moped.23" depart="43.00" departLane="beg_0" departPos="2.20" departSpeed="0.00" departDelay="20.00" arrival="230.00" arrivalLane="end_0" arrivalPos="10.00" arrivalSpeed="7.80" duration="187.00" routeLength="507.80" waitSteps="113" timeLoss="131.83" rerouteNo="0" devices="tripinfo_moped.23" vType="moped" vaporized=""/>
    <tripinfo id="moped.31" depart="57.00" departLane="beg_0" departPos="2.20" departSpeed="0.00" departDelay="26.00" arrival="231.00" arrivalLane="end_0" arrivalPos="10.00" arrivalSpeed="8.28" duration="174.00" routeLength="507.80" waitSteps="108" timeLoss="143.46" rerouteNo="0" devices="tripinfo_moped.31" vType="moped" vaporized=""/>
    <tripinfo id="moped.25" depart="46.00" departLane="beg_0" departPos="2.20" departSpeed="0.00" departDelay="21.00" arrival="231.00" arrivalLane="end_0" arrivalPos="10.00" arrivalSpeed="8.22" duration="185.00" routeLength="507.80" waitSteps="106" timeLoss="125.78" rerouteNo="0" devices="tripinfo_moped.25" vType="moped" vaporized=""/>
    <tripinfo id="moped.32" depart="59.00" departLane="beg_1" departPos="2.20" departSpeed="0.00" departDelay="27.00" arrival="231.00" arrivalLane="end_1" arrivalPos="10.00" arrivalSpeed="10.20" duration="172.00" routeLength="507.80" waitSteps="92" timeLoss="135.47" rerouteNo="0" devices="tripinfo_moped.32" vType="moped" vaporized=""/>
    <tripinfo id="moped.34" depart="63.00" departLane="beg_1" departPos="2.20" departSpeed="0.00" departDelay="29.00" arrival="232.00" arrivalLane="end_0" arrivalPos="10.00" arrivalSpeed="10.02" duration="169.00" routeLength="507.80" waitSteps="91" timeLoss="131.72" rerouteNo="0" devices="tripinfo_moped.34" vType="moped" vaporized=""/>
    <tripinfo id="moped.28" depart="51.00" departLane="beg_0" departPos="2.20" departSpeed="0.00" departDelay="23.00" arrival="232.00" arrivalLane="end_1" arrivalPos="10.00" arrivalSpeed="14.46" duration="181.00" routeLength="507.80" waitSteps="106" timeLoss="150.98" rerouteNo="0" devices="tripinfo_moped.28" vType="moped" vaporized=""/>
    <tripinfo id="moped.35" depart="66.00" departLane="beg_1" departPos="2.20" departSpeed="0.00" departDelay="31.00" arrival="234.00" arrivalLane="end_1" arrivalPos="10.00" arrivalSpeed="11.49" duration="168.00" routeLength="507.80" waitSteps="91" timeLoss="132.84" rerouteNo="0" devices="tripinfo_moped.35" vType="moped" vaporized=""/>
    <tripinfo id="moped.33" depart="63.00" departLane="beg_0" departPos="2.20" departSpeed="0.00" departDelay="30.00" arrival="235.00" arrivalLane="end_0" arrivalPos="10.00" arrivalSpeed="9.64" duration="172.00" routeLength="507.80" waitSteps="105" timeLoss="141.06" rerouteNo="0" devices="tripinfo_moped.33" vType="moped" vaporized=""/>
    <tripinfo id="moped.37" depart="71.00" departLane="beg_1" departPos="2.20" departSpeed="0.00" departDelay="34.00" arrival="235.00" arrivalLane="end_1" arrivalPos="10.00" arrivalSpeed="12.99" duration="164.00" routeLength="507.80" waitSteps="91" timeLoss="133.40" rerouteNo="0" devices="tripinfo_moped.37" vType="moped" vaporized=""/>
    <tripinfo id="moped.36" depart="68.00" departLane="beg_0" departPos="2.20" departSpeed="0.00" departDelay="32.00" arrival="236.00" arrivalLane="end_0" arrivalPos="10.00" arrivalSpeed="9.36" duration="168.00" routeLength="507.80" waitSteps="106" timeLoss="128.15" rerouteNo="0" devices="tripinfo_moped.36" vType="moped" vaporized=""/>
    <tripinfo id="moped.38" depart="73.00" departLane="beg_0" departPos="2.20" departSpeed="0.00" departDelay="35.00" arrival="238.00" arrivalLane="end_0" arrivalPos="10.00" arrivalSpeed="10.25" duration="165.00" routeLength="507.80" waitSteps="104" timeLoss="134.13" rerouteNo="0" devices="tripinfo_moped.38" vType="moped" vaporized=""/>
    <tripinfo id="moped.39" depart="74.00" departLane="beg_1" departPos="2.20" departSpeed="0.00" departDelay="35.00" arrival="238.00" arrivalLane="end_1" arrivalPos="10.00" arrivalSpeed="9.60" duration="164.00" routeLength="507.80" waitSteps="92" timeLoss="111.24" rerouteNo="0" devices="tripinfo_moped.39" vType="moped" vaporized=""/>
    <tripinfo id="moped.41" depart="78.00" departLane="beg_1" departPos="2.20" departSpeed="0.00" departDelay="37.00" arrival="239.00" arrivalLane="end_1" arrivalPos="10.00" arrivalSpeed="10.79" duration="161.00" routeLength="507.80" waitSteps="92" timeLoss="118.80" rerouteNo="0" devices="tripinfo_moped.41" vType="moped" vaporized=""/>
    <tripinfo id="moped.98" depart="196.00" departLane="beg_1" departPos="2.20" departSpeed="0.00" departDelay="98.00" arrival="240.00" arrivalLane="end_1" arrivalPos="10.00" arrivalSpeed="14.89" duration="44.00" routeLength="507.80" waitSteps="4" timeLoss="26.42" rerouteNo="0" devices="tripinfo_moped.98" vType="moped" vaporized=""/>
    <tripinfo id="moped.40" depart="76.00" departLane="beg_0" departPos="2.20" departSpeed="0.00" departDelay="36.00" arrival="240.00" arrivalLane="end_0" arrivalPos="10.00" arrivalSpeed="10.39" duration="164.00" routeLength="507.80" waitSteps="102" timeLoss="129.90" rerouteNo="0" devices="tripinfo_moped.40" vType="moped" vaporized=""/>
    <tripinfo id="moped.43" depart="84.00" departLane="beg_0" departPos="2.20" departSpeed="0.00" departDelay="41.00" arrival="241.00" arrivalLane="end_0" arrivalPos="10.00" arrivalSpeed="10.69" duration="157.00" routeLength="507.80" waitSteps="97" timeLoss="123.94" rerouteNo="0" devices="tripinfo_moped.43" vType="moped" vaporized=""/>
    <tripinfo id="moped.42" depart="80.00" departLane="beg_0" departPos="2.20" departSpeed="0.00" departDelay="38.00" arrival="241.00" arrivalLane="end_0" arrivalPos="10.00" arrivalSpeed="10.81" duration="161.00" routeLength="507.80" waitSteps="102" timeLoss="130.33" rerouteNo="0" devices="tripinfo_moped.42" vType="moped" vaporized=""/>
    <tripinfo id="moped.44" depart="85.00" departLane="beg_1" departPos="2.20" departSpeed="0.00" departDelay="41.00" arrival="241.00" arrivalLane="end_1" arrivalPos="10.00" arrivalSpeed="11.35" duration="156.00" routeLength="507.80" waitSteps="92" timeLoss="123.10" rerouteNo="0" devices="tripinfo_moped.44" vType="moped" vaporized=""/>
    <tripinfo id="moped.46" depart="89.00" departLane="beg_1" departPos="2.20" departSpeed="0.00" departDelay="43.00" arrival="242.00" arrivalLane="end_0" arrivalPos="10.00" arrivalSpeed="11.66" duration="153.00" routeLength="507.80" waitSteps="91" timeLoss="115.89" rerouteNo="0" devices="tripinfo_moped.46" vType="moped" vaporized=""/>
    <tripinfo id="moped.45" depart="89.00" departLane="beg_0" departPos="2.20" departSpeed="0.00" departDelay="44.00" arrival="244.00" arrivalLane="end_0" arrivalPos="10.00" arrivalSpeed="5.87" duration="155.00" routeLength="507.80" waitSteps="96" timeLoss="124.41" rerouteNo="0" devices="tripinfo_moped.45" vType="moped" vaporized=""/>
    <tripinfo id="moped.47" depart="93.00" departLane="beg_1" departPos="2.20" departSpeed="0.00" departDelay="46.00" arrival="244.00" arrivalLane="end_1" arrivalPos="10.00" arrivalSpeed="9.58" duration="151.00" routeLength="507.80" waitSteps="84" timeLoss="98.80" rerouteNo="0" devices="tripinfo_moped.47" vType="moped" vaporized=""/>
    <tripinfo id="moped.48" depart="93.00" departLane="beg_0" departPos="2.20" departSpeed="0.00" departDelay="45.00" arrival="246.00" arrivalLane="end_0" arrivalPos="10.00" arrivalSpeed="7.17" duration="153.00" routeLength="507.80" waitSteps="76" timeLoss="94.53" rerouteNo="0" devices="tripinfo_moped.48" vType="moped" vaporized=""/>
    <tripinfo id="moped.50" depart="98.00" departLane="beg_1" departPos="2.20" departSpeed="0.00" departDelay="48.00" arrival="248.00" arrivalLane="end_1" arrivalPos="10.00" arrivalSpeed="7.40" duration="150.00" routeLength="507.80" waitSteps="71" timeLoss="84.94" rerouteNo="0" devices="tripinfo_moped.50" vType="moped" vaporized=""/>
    <tripinfo id="moped.49" depart="97.00" departLane="beg_0" departPos="2.20" departSpeed="0.00" departDelay="48.00" arrival="248.00" arrivalLane="end_0" arrivalPos="10.00" arrivalSpeed="7.13" duration="151.00" routeLength="507.80" waitSteps="67" timeLoss="83.77" rerouteNo="0" devices="tripinfo_moped.49" vType="moped" vaporized=""/>
    <tripinfo id="moped.52" depart="101.00" departLane="beg_0" departPos="2.20" departSpeed="0.00" departDelay="49.00" arrival="249.00" arrivalLane="end_0" arrivalPos="10.00" arrivalSpeed="7.99" duration="148.00" routeLength="507.80" waitSteps="66" timeLoss="112.98" rerouteNo="0" devices="tripinfo_moped.52" vType="moped" vaporized=""/>
    <tripinfo id="moped.51" depart="101.00" departLane="beg_1" departPos="2.20" departSpeed="0.00" departDelay="50.00" arrival="250.00" arrivalLane="end_1" arrivalPos="10.00" arrivalSpeed="8.87" duration="149.00" routeLength="507.80" waitSteps="71" timeLoss="118.08" rerouteNo="0" devices="tripinfo_moped.51" vType="moped" vaporized=""/>
    <tripinfo id="moped.54" depart="108.00" departLane="beg_0" departPos="2.20" departSpeed="0.00" departDelay="54.00" arrival="251.00" arrivalLane="end_0" arrivalPos="10.00" arrivalSpeed="8.38" duration="143.00" routeLength="507.80" waitSteps="65" timeLoss="106.36" rerouteNo="0" devices="tripinfo_moped.54" vType="moped" vaporized=""/>
    <tripinfo id="moped.53" depart="105.00" departLane="beg_1" departPos="2.20" departSpeed="0.00" departDelay="52.00" arrival="251.00" arrivalLane="end_1" arrivalPos="10.00" arrivalSpeed="9.39" duration="146.00" routeLength="507.80" waitSteps="71" timeLoss="115.36" rerouteNo="0" devices="tripinfo_moped.53" vType="moped" vaporized=""/>
    <tripinfo id="moped.55" depart="108.00" departLane="beg_1" departPos="2.20" departSpeed="0.00" departDelay="53.00" arrival="251.00" arrivalLane="end_1" arrivalPos="10.00" arrivalSpeed="8.76" duration="143.00" routeLength="507.80" waitSteps="71" timeLoss="105.85" rerouteNo="0" devices="tripinfo_moped.55" vType="moped" vaporized=""/>
    <tripinfo id="moped.56" depart="112.00" departLane="beg_0" departPos="2.20" departSpeed="0.00" departDelay="56.00" arrival="252.00" arrivalLane="end_0" arrivalPos="10.00" arrivalSpeed="8.91" duration="140.00" routeLength="507.80" waitSteps="64" timeLoss="87.37" rerouteNo="0" devices="tripinfo_moped.56" vType="moped" vaporized=""/>
    <tripinfo id="moped.57" depart="113.00" departLane="beg_1" departPos="2.20" departSpeed="0.00" departDelay="56.00" arrival="253.00" arrivalLane="end_1" arrivalPos="10.00" arrivalSpeed="10.25" duration="140.00" routeLength="507.80" waitSteps="69" timeLoss="109.08" rerouteNo="0" devices="tripinfo_moped.57" vType="moped" vaporized=""/>
    <tripinfo id="moped.58" depart="117.00" departLane="beg_0" departPos="2.20" departSpeed="0.00" departDelay="59.00" arrival="254.00" arrivalLane="end_0" arrivalPos="10.00" arrivalSpeed="9.65" duration="137.00" routeLength="507.80" waitSteps="63" timeLoss="102.48" rerouteNo="0" devices="tripinfo_moped.58" vType="moped" vaporized=""/>
    <tripinfo id="moped.59" depart="117.00" departLane="beg_1" departPos="2.20" departSpeed="0.00" departDelay="58.00" arrival="254.00" arrivalLane="end_1" arrivalPos="10.00" arrivalSpeed="9.88" duration="137.00" routeLength="507.80" waitSteps="70" timeLoss="96.63" rerouteNo="0" devices="tripinfo_moped.59" vType="moped" vaporized=""/>
    <tripinfo id="moped.61" depart="121.00" departLane="beg_0" departPos="2.20" departSpeed="0.00" departDelay="60.00" arrival="256.00" arrivalLane="end_0" arrivalPos="10.00" arrivalSpeed="10.11" duration="135.00" routeLength="507.80" waitSteps="64" timeLoss="103.92" rerouteNo="0" devices="tripinfo_moped.61" vType="moped" vaporized=""/>
    <tripinfo id="moped.63" depart="125.00" departLane="beg_1" departPos="2.20" departSpeed="0.00" departDelay="62.00" arrival="256.00" arrivalLane="end_1" arrivalPos="10.00" arrivalSpeed="10.82" duration="131.00" routeLength="507.80" waitSteps="70" timeLoss="92.38" rerouteNo="0" devices="tripinfo_moped.63" vType="moped" vaporized=""/>
    <tripinfo id="moped.60" depart="121.00" departLane="beg_1" departPos="2.20" departSpeed="0.00" departDelay="61.00" arrival="256.00" arrivalLane="end_1" arrivalPos="10.00" arrivalSpeed="11.05" duration="135.00" routeLength="507.80" waitSteps="70" timeLoss="104.04" rerouteNo="0" devices="tripinfo_moped.60" vType="moped" vaporized=""/>
    <tripinfo id="moped.62" depart="125.00" departLane="beg_0" departPos="2.20" departSpeed="0.00" departDelay="63.00" arrival="257.00" arrivalLane="end_0" arrivalPos="10.00" arrivalSpeed="9.84" duration="132.00" routeLength="507.80" waitSteps="64" timeLoss="96.78" rerouteNo="0" devices="tripinfo_moped.62" vType="moped" vaporized=""/>
    <tripinfo id="moped.65" depart="128.00" departLane="beg_1" departPos="2.20" departSpeed="0.00" departDelay="63.00" arrival="258.00" arrivalLane="end_1" arrivalPos="10.00" arrivalSpeed="8.97" duration="130.00" routeLength="507.80" waitSteps="58" timeLoss="73.01" rerouteNo="0" devices="tripinfo_moped.65" vType="moped" vaporized=""/>
    <tripinfo id="moped.64" depart="128.00" departLane="beg_0" departPos="2.20" departSpeed="0.00" departDelay="64.00" arrival="259.00" arrivalLane="end_0" arrivalPos="10.00" arrivalSpeed="11.19" duration="131.00" routeLength="507.80" waitSteps="61" timeLoss="85.09" rerouteNo="0" devices="tripinfo_moped.64" vType="moped" vaporized=""/>
    <tripinfo id="moped.67" depart="134.00" departLane="beg_0" departPos="2.20" departSpeed="0.00" departDelay="67.00" arrival="260.00" arrivalLane="end_0" arrivalPos="10.00" arrivalSpeed="9.91" duration="126.00" routeLength="507.80" waitSteps="57" timeLoss="76.48" rerouteNo="0" devices="tripinfo_moped.67" vType="moped" vaporized=""/>
    <tripinfo id="moped.66" depart="132.00" departLane="beg_1" departPos="2.20" departSpeed="0.00" departDelay="66.00" arrival="260.00" arrivalLane="end_1" arrivalPos="10.00" arrivalSpeed="9.83" duration="128.00" routeLength="507.80" waitSteps="58" timeLoss="76.34" rerouteNo="0" devices="tripinfo_moped.66" vType="moped" vaporized=""/>
    <tripinfo id="moped.68" depart="137.00" departLane="beg_1" departPos="2.20" departSpeed="0.00" departDelay="69.00" arrival="261.00" arrivalLane="end_1" arrivalPos="10.00" arrivalSpeed="10.00" duration="124.00" routeLength="507.80" waitSteps="57" timeLoss="91.08" rerouteNo="0" devices="tripinfo_moped.68" vType="moped" vaporized=""/>
    <tripinfo id="moped.69" depart="139.00" departLane="beg_0" departPos="2.20" departSpeed="0.00" departDelay="70.00" arrival="262.00" arrivalLane="end_0" arrivalPos="10.00" arrivalSpeed="11.87" duration="123.00" routeLength="507.80" waitSteps="55" timeLoss="87.94" rerouteNo="0" devices="tripinfo_moped.69" vType="moped" vaporized=""/>
    <tripinfo id="moped.71" depart="143.00" departLane="beg_0" departPos="2.20" departSpeed="0.00" departDelay="72.00" arrival="263.00" arrivalLane="end_0" arrivalPos="10.00" arrivalSpeed="11.91" duration="120.00" routeLength="507.80" waitSteps="55" timeLoss="79.69" rerouteNo="0" devices="tripinfo_moped.71" vType="moped" vaporized=""/>
    <tripinfo id="moped.70" depart="141.00" departLane="beg_1" departPos="2.20" departSpeed="0.00" departDelay="71.00" arrival="263.00" arrivalLane="end_1" arrivalPos="10.00" arrivalSpeed="11.43" duration="122.00" routeLength="507.80" waitSteps="58" timeLoss="87.05" rerouteNo="0" devices="tripinfo_moped.70" vType="moped" vaporized=""/>
    <tripinfo id="moped.72" depart="144.00" departLane="beg_1" departPos="2.20" departSpeed="0.00" departDelay="72.00" arrival="264.00" arrivalLane="end_1" arrivalPos="10.00" arrivalSpeed="11.12" duration="120.00" routeLength="507.80" waitSteps="55" timeLoss="75.02" rerouteNo="0" devices="tripinfo_moped.72" vType="moped" vaporized=""/>
    <tripinfo id="moped.73" depart="146.00" departLane="beg_0" departPos="2.20" departSpeed="0.00" departDelay="73.00" arrival="264.00" arrivalLane="end_0" arrivalPos="10.00" arrivalSpeed="11.60" duration="118.00" routeLength="507.80" waitSteps="54" timeLoss="86.60" rerouteNo="0" devices="tripinfo_moped.73" vType="moped" vaporized=""/>
    <tripinfo id="moped.75" depart="149.00" departLane="beg_0" departPos="2.20" departSpeed="0.00" departDelay="74.00" arrival="266.00" arrivalLane="end_0" arrivalPos="10.00" arrivalSpeed="12.83" duration="117.00" routeLength="507.80" waitSteps="52" timeLoss="78.06" rerouteNo="0" devices="tripinfo_moped.75" vType="moped" vaporized=""/>
    <tripinfo id="moped.74" depart="148.00" departLane="beg_1" departPos="2.20" departSpeed="0.00" departDelay="74.00" arrival="266.00" arrivalLane="end_1" arrivalPos="10.00" arrivalSpeed="11.99" duration="118.00" routeLength="507.80" waitSteps="55" timeLoss="74.78" rerouteNo="0" devices="tripinfo_moped.74" vType="moped" vaporized=""/>
    <tripinfo id="moped.76" depart="151.00" departLane="beg_1" departPos="2.20" departSpeed="0.00" departDelay="75.00" arrival="267.00" arrivalLane="end_1" arrivalPos="10.00" arrivalSpeed="11.72" duration="116.00" routeLength="507.80" waitSteps="53" timeLoss="82.25" rerouteNo="0" devices="tripinfo_moped.76" vType="moped" vaporized=""/>
    <tripinfo id="moped.77" depart="155.00" departLane="beg_0" departPos="2.20" departSpeed="0.00" departDelay="78.00" arrival="267.00" arrivalLane="end_0" arrivalPos="10.00" arrivalSpeed="13.07" duration="112.00" routeLength="507.80" waitSteps="49" timeLoss="73.09" rerouteNo="0" devices="tripinfo_moped.77" vType="moped" vaporized=""/>
    <tripinfo id="moped.78" depart="155.00" departLane="beg_1" departPos="2.20" departSpeed="0.00" departDelay="77.00" arrival="268.00" arrivalLane="end_1" arrivalPos="10.00" arrivalSpeed="11.73" duration="113.00" routeLength="507.80" waitSteps="54" timeLoss="77.11" rerouteNo="0" devices="tripinfo_moped.78" vType="moped" vaporized=""/>
    <tripinfo id="moped.79" depart="158.00" departLane="beg_0" departPos="2.20" departSpeed="0.00" departDelay="79.00" arrival="269.00" arrivalLane="end_0" arrivalPos="10.00" arrivalSpeed="13.74" duration="111.00" routeLength="507.80" waitSteps="50" timeLoss="79.79" rerouteNo="0" devices="tripinfo_moped.79" vType="moped" vaporized=""/>
    <tripinfo id="moped.82" depart="163.00" departLane="beg_0" departPos="2.20" departSpeed="0.00" departDelay="81.00" arrival="270.00" arrivalLane="end_0" arrivalPos="10.00" arrivalSpeed="13.82" duration="107.00" routeLength="507.80" waitSteps="46" timeLoss="71.69" rerouteNo="0" devices="tripinfo_moped.82" vType="moped" vaporized=""/>
    <tripinfo id="moped.80" depart="160.00" departLane="beg_1" departPos="2.20" departSpeed="0.00" departDelay="80.00" arrival="270.00" arrivalLane="end_1" arrivalPos="10.00" arrivalSpeed="12.14" duration="110.00" routeLength="507.80" waitSteps="51" timeLoss="76.34" rerouteNo="0" devices="tripinfo_moped.80" vType="moped" vaporized=""/>
    <tripinfo id="moped.81" depart="163.00" departLane="beg_1" departPos="2.20" departSpeed="0.00" departDelay="82.00" arrival="271.00" arrivalLane="end_1" arrivalPos="10.00" arrivalSpeed="11.67" duration="108.00" routeLength="507.80" waitSteps="49" timeLoss="71.07" rerouteNo="0" devices="tripinfo_moped.81" vType="moped" vaporized=""/>
    <tripinfo id="moped.84" depart="168.00" departLane="beg_0" departPos="2.20" departSpeed="0.00" departDelay="84.00" arrival="271.00" arrivalLane="end_0" arrivalPos="10.00" arrivalSpeed="14.07" duration="103.00" routeLength="507.80" waitSteps="42" timeLoss="72.38" rerouteNo="0" devices="tripinfo_moped.84" vType="moped" vaporized=""/>
    <tripinfo id="moped.87" depart="175.00" departLane="beg_0" departPos="2.20" departSpeed="0.00" departDelay="88.00" arrival="273.00" arrivalLane="end_0" arrivalPos="10.00" arrivalSpeed="14.50" duration="98.00" routeLength="507.80" waitSteps="36" timeLoss="64.86" rerouteNo="0" devices="tripinfo_moped.87" vType="moped" vaporized=""/>