<?xml version="1.0" encoding="UTF-8"?>

<!-- generated on Fri Nov  6 06:41:46 2015 by SUMO Version dev-SVN-r19267
<?xml version="1.0" encoding="UTF-8"?>

<configuration xmlns:xsi="http://www.w3.org/2001/XMLSchema-instance" xsi:noNamespaceSchemaLocation="http://sumo.dlr.de/xsd/sumoConfiguration.xsd">

    <input>
        <net-file value="net.net.xml"/>
        <route-files value="input_routes.rou.xml"/>
    </input>

    <output>
        <tripinfo-output value="tripinfos.xml"/>
    </output>

    <processing>
        <lateral-resolution value="1.1"/>
    </processing>

    <report>
        <xml-validation value="never"/>
        <no-step-log value="true"/>
    </report>

</configuration>
-->

<tripinfos xmlns:xsi="http://www.w3.org/2001/XMLSchema-instance" xsi:noNamespaceSchemaLocation="http://sumo.dlr.de/xsd/tripinfo_file.xsd">
    <tripinfo id="moped.1" depart="1.00" departLane="beg_1" departPos="2.20" departSpeed="0.00" departDelay="0.00" arrival="204.00" arrivalLane="end_1" arrivalPos="10.00" arrivalSpeed="4.26" duration="203.00" routeLength="507.80" waitSteps="146" timeLoss="157.88" rerouteNo="0" devices="tripinfo_moped.1" vType="moped" vaporized=""/>
    <tripinfo id="moped.6" depart="7.00" departLane="beg_1" departPos="2.20" departSpeed="0.00" departDelay="1.00" arrival="204.00" arrivalLane="end_1" arrivalPos="10.00" arrivalSpeed="4.00" duration="197.00" routeLength="507.80" waitSteps="149" timeLoss="164.74" rerouteNo="0" devices="tripinfo_moped.6" vType="moped" vaporized=""/>
    <tripinfo id="moped.2" depart="2.00" departLane="beg_0" departPos="2.20" departSpeed="0.00" departDelay="0.00" arrival="204.00" arrivalLane="end_0" arrivalPos="10.00" arrivalSpeed="4.26" duration="202.00" routeLength="507.80" waitSteps="152" timeLoss="166.30" rerouteNo="0" devices="tripinfo_moped.2" vType="moped" vaporized=""/>
    <tripinfo id="moped.4" depart="4.00" departLane="beg_0" departPos="2.20" departSpeed="0.00" departDelay="0.00" arrival="204.00" arrivalLane="end_0" arrivalPos="10.00" arrivalSpeed="4.45" duration="200.00" routeLength="507.80" waitSteps="149" timeLoss="166.26" rerouteNo="0" devices="tripinfo_moped.4" vType="moped" vaporized=""/>
    <tripinfo id="moped.3" depart="4.00" departLane="beg_1" departPos="2.20" departSpeed="0.00" departDelay="1.00" arrival="205.00" arrivalLane="end_1" arrivalPos="10.00" arrivalSpeed="4.45" duration="201.00" routeLength="507.80" waitSteps="148" timeLoss="170.26" rerouteNo="0" devices="tripinfo_moped.3" vType="moped" vaporized=""/>
    <tripinfo id="moped.0" depart="0.00" departLane="beg_0" departPos="2.20" departSpeed="0.00" departDelay="0.00" arrival="205.00" arrivalLane="end_0" arrivalPos="10.00" arrivalSpeed="4.41" duration="205.00" routeLength="507.80" waitSteps="158" timeLoss="173.76" rerouteNo="0" devices="tripinfo_moped.0" vType="moped" vaporized=""/>
    <tripinfo id="moped.8" depart="8.00" departLane="beg_1" departPos="2.20" departSpeed="0.00" departDelay="0.00" arrival="206.00" arrivalLane="end_1" arrivalPos="10.00" arrivalSpeed="5.30" duration="198.00" routeLength="507.80" waitSteps="140" timeLoss="152.84" rerouteNo="0" devices="tripinfo_moped.8" vType="moped" vaporized=""/>
    <tripinfo id="moped.10" depart="12.00" departLane="beg_0" departPos="2.20" departSpeed="0.00" departDelay="2.00" arrival="206.00" arrivalLane="end_0" arrivalPos="10.00" arrivalSpeed="5.49" duration="194.00" routeLength="507.80" waitSteps="135" timeLoss="163.30" rerouteNo="0" devices="tripinfo_moped.10" vType="moped" vaporized=""/>
    <tripinfo id="moped.11" depart="12.00" departLane="beg_0" departPos="2.20" departSpeed="0.00" departDelay="1.00" arrival="206.00" arrivalLane="end_0" arrivalPos="10.00" arrivalSpeed="5.47" duration="194.00" routeLength="507.80" waitSteps="141" timeLoss="159.88" rerouteNo="0" devices="tripinfo_moped.11" vType="moped" vaporized=""/>
    <tripinfo id="moped.14" depart="16.00" departLane="beg_1" departPos="2.20" departSpeed="0.00" departDelay="2.00" arrival="207.00" arrivalLane="end_1" arrivalPos="10.00" arrivalSpeed="5.48" duration="191.00" routeLength="507.80" waitSteps="133" timeLoss="153.05" rerouteNo="0" devices="tripinfo_moped.14" vType="moped" vaporized=""/>
    <tripinfo id="moped.12" depart="15.00" departLane="beg_1" departPos="2.20" departSpeed="0.00" departDelay="3.00" arrival="207.00" arrivalLane="end_1" arrivalPos="10.00" arrivalSpeed="4.86" duration="192.00" routeLength="507.80" waitSteps="143" timeLoss="159.72" rerouteNo="0" devices="tripinfo_moped.12" vType="moped" vaporized=""/>
    <tripinfo id="moped.13" depart="15.00" departLane="beg_0" departPos="2.20" departSpeed="0.00" departDelay="2.00" arrival="207.00" arrivalLane="end_0" arrivalPos="10.00" arrivalSpeed="4.91" duration="192.00" routeLength="507.80" waitSteps="140" timeLoss="161.39" rerouteNo="0" devices="tripinfo_moped.13" vType="moped" vaporized=""/>
    <tripinfo id="moped.7" depart="8.00" departLane="beg_0" departPos="2.20" departSpeed="0.00" departDelay="1.00" arrival="208.00" arrivalLane="end_0" arrivalPos="10.00" arrivalSpeed="5.44" duration="200.00" routeLength="507.80" waitSteps="130" timeLoss="144.38" rerouteNo="0" devices="tripinfo_moped.7" vType="moped" vaporized=""/>
    <tripinfo id="moped.20" depart="23.00" departLane="beg_1" departPos="2.20" departSpeed="0.00" departDelay="3.00" arrival="209.00" arrivalLane="end_1" arrivalPos="10.00" arrivalSpeed="5.86" duration="186.00" routeLength="507.80" waitSteps="130" timeLoss="150.90" rerouteNo="0" devices="tripinfo_moped.20" vType="moped" vaporized=""/>
    <tripinfo id="moped.19" depart="22.00" departLane="beg_0" departPos="2.20" departSpeed="0.00" departDelay="3.00" arrival="209.00" arrivalLane="end_1" arrivalPos="10.00" arrivalSpeed="5.96" duration="187.00" routeLength="507.80" waitSteps="137" timeLoss="156.23" rerouteNo="0" devices="tripinfo_moped.19" vType="moped" vaporized=""/>
    <tripinfo id="moped.18" depart="22.00" departLane="beg_1" departPos="2.20" departSpeed="0.00" departDelay="4.00" arrival="209.00" arrivalLane="end_1" arrivalPos="10.00" arrivalSpeed="5.58" duration="187.00" routeLength="507.80" waitSteps="124" timeLoss="141.55" rerouteNo="0" devices="tripinfo_moped.18" vType="moped" vaporized=""/>
    <tripinfo id="moped.17" depart="19.00" departLane="beg_0" departPos="2.20" departSpeed="0.00" departDelay="2.00" arrival="209.00" arrivalLane="end_0" arrivalPos="10.00" arrivalSpeed="6.13" duration="190.00" routeLength="507.80" waitSteps="131" timeLoss="145.13" rerouteNo="0" devices="tripinfo_moped.17" vType="moped" vaporized=""/>
    <tripinfo id="moped.21" depart="26.00" departLane="beg_0" departPos="2.20" departSpeed="0.00" departDelay="5.00" arrival="209.00" arrivalLane="end_0" arrivalPos="10.00" arrivalSpeed="5.16" duration="183.00" routeLength="507.80" waitSteps="128" timeLoss="147.40" rerouteNo="0" devices="tripinfo_moped.21" vType="moped" vaporized=""/>
    <tripinfo id="moped.16" depart="19.00" departLane="beg_0" departPos="2.20" departSpeed="0.00" departDelay="3.00" arrival="211.00" arrivalLane="end_0" arrivalPos="10.00" arrivalSpeed="6.31" duration="192.00" routeLength="507.80" waitSteps="114" timeLoss="133.97" rerouteNo="0" devices="tripinfo_moped.16" vType="moped" vaporized=""/>
    <tripinfo id="moped.22" depart="27.00" departLane="beg_1" departPos="2.20" departSpeed="0.00" departDelay="5.00" arrival="211.00" arrivalLane="end_0" arrivalPos="10.00" arrivalSpeed="6.02" duration="184.00" routeLength="507.80" waitSteps="126" timeLoss="144.18" rerouteNo="0" devices="tripinfo_moped.22" vType="moped" vaporized=""/>
    <tripinfo id="moped.5" depart="6.00" departLane="beg_0" departPos="2.20" departSpeed="0.00" departDelay="1.00" arrival="211.00" arrivalLane="end_0" arrivalPos="10.00" arrivalSpeed="6.55" duration="205.00" routeLength="507.80" waitSteps="118" timeLoss="130.45" rerouteNo="0" devices="tripinfo_moped.5" vType="moped" vaporized=""/>
    <tripinfo id="moped.15" depart="19.00" departLane="beg_1" departPos="2.20" departSpeed="0.00" departDelay="4.00" arrival="211.00" arrivalLane="end_1" arrivalPos="10.00" arrivalSpeed="6.08" duration="192.00" routeLength="507.80" waitSteps="128" timeLoss="144.68" rerouteNo="0" devices="tripinfo_moped.15" vType="moped" vaporized=""/>
    <tripinfo id="moped.9" depart="11.00" departLane="beg_1" departPos="2.20" departSpeed="0.00" departDelay="2.00" arrival="211.00" arrivalLane="end_1" arrivalPos="10.00" arrivalSpeed="5.80" duration="200.00" routeLength="507.80" waitSteps="121" timeLoss="135.57" rerouteNo="0" devices="tripinfo_moped.9" vType="moped" vaporized=""/>
    <tripinfo id="moped.30" depart="43.00" departLane="beg_0" departPos="2.20" departSpeed="0.00" departDelay="13.00" arrival="211.00" arrivalLane="end_1" arrivalPos="10.00" arrivalSpeed="5.82" duration="168.00" routeLength="507.80" waitSteps="116" timeLoss="137.40" rerouteNo="0" devices="tripinfo_moped.30" vType="moped" vaporized=""/>
    <tripinfo id="moped.28" depart="38.00" departLane="beg_0" departPos="2.20" departSpeed="0.00" departDelay="10.00" arrival="213.00" arrivalLane="end_1" arrivalPos="10.00" arrivalSpeed="7.01" duration="175.00" routeLength="507.80" waitSteps="116" timeLoss="144.08" rerouteNo="0" devices="tripinfo_moped.28" vType="moped" vaporized=""/>
    <tripinfo id="moped.33" depart="46.00" departLane="beg_0" departPos="2.20" departSpeed="0.00" departDelay="13.00" arrival="213.00" arrivalLane="end_1" arrivalPos="10.00" arrivalSpeed="6.78" duration="167.00" routeLength="507.80" waitSteps="112" timeLoss="136.24" rerouteNo="0" devices="tripinfo_moped.33" vType="moped" vaporized=""/>
    <tripinfo id="moped.23" depart="30.00" departLane="beg_0" departPos="2.20" departSpeed="0.00" departDelay="7.00" arrival="213.00" arrivalLane="end_0" arrivalPos="10.00" arrivalSpeed="6.98" duration="183.00" routeLength="507.80" waitSteps="113" timeLoss="127.75" rerouteNo="0" devices="tripinfo_moped.23" vType="moped" vaporized=""/>
    <tripinfo id="moped.26" depart="34.00" departLane="beg_0" departPos="2.20" departSpeed="0.00" departDelay="8.00" arrival="213.00" arrivalLane="end_0" arrivalPos="10.00" arrivalSpeed="6.72" duration="179.00" routeLength="507.80" waitSteps="113" timeLoss="129.94" rerouteNo="0" devices="tripinfo_moped.26" vType="moped" vaporized=""/>
    <tripinfo id="moped.31" depart="43.00" departLane="beg_0" departPos="2.20" departSpeed="0.00" departDelay="12.00" arrival="213.00" arrivalLane="end_0" arrivalPos="10.00" arrivalSpeed="7.04" duration="170.00" routeLength="507.80" waitSteps="118" timeLoss="139.32" rerouteNo="0" devices="tripinfo_moped.31" vType="moped" vaporized=""/>
    <tripinfo id="moped.38" depart="52.00" departLane="beg_1" departPos="2.20" departSpeed="0.00" departDelay="14.00" arrival="214.00" arrivalLane="end_1" arrivalPos="10.00" arrivalSpeed="6.65" duration="162.00" routeLength="507.80" waitSteps="109" timeLoss="131.12" rerouteNo="0" devices="tripinfo_moped.38" vType="moped" vaporized=""/>
    <tripinfo id="moped.34" depart="48.00" departLane="beg_1" departPos="2.20" departSpeed="0.00" departDelay="14.00" arrival="214.00" arrivalLane="end_1" arrivalPos="10.00" arrivalSpeed="6.52" duration="166.00" routeLength="507.80" waitSteps="112" timeLoss="128.79" rerouteNo="0" devices="tripinfo_moped.34" vType="moped" vaporized=""/>
    <tripinfo id="moped.25" depart="33.00" departLane="beg_1" departPos="2.20" departSpeed="0.00" departDelay="8.00" arrival="215.00" arrivalLane="end_0" arrivalPos="10.00" arrivalSpeed="7.59" duration="182.00" routeLength="507.80" waitSteps="107" timeLoss="122.00" rerouteNo="0" devices="tripinfo_moped.25" vType="moped" vaporized=""/>
    <tripinfo id="moped.32" depart="45.00" departLane="beg_1" departPos="2.20" departSpeed="0.00" departDelay="13.00" arrival="215.00" arrivalLane="end_0" arrivalPos="10.00" arrivalSpeed="7.48" duration="170.00" routeLength="507.80" waitSteps="106" timeLoss="133.59" rerouteNo="0" devices="tripinfo_moped.32" vType="moped" vaporized=""/>
    <tripinfo id="moped.36" depart="49.00" departLane="beg_0" departPos="2.20" departSpeed="0.00" departDelay="13.00" arrival="215.00" arrivalLane="end_0" arrivalPos="10.00" arrivalSpeed="6.76" duration="166.00" routeLength="507.80" waitSteps="110" timeLoss="126.13" rerouteNo="0" devices="tripinfo_moped.36" vType="moped" vaporized=""/>
    <tripinfo id="moped.37" depart="52.00" departLane="beg_0" departPos="2.20" departSpeed="0.00" departDelay="15.00" arrival="215.00" arrivalLane="end_1" arrivalPos="10.00" arrivalSpeed="7.63" duration="163.00" routeLength="507.80" waitSteps="104" timeLoss="132.10" rerouteNo="0" devices="tripinfo_moped.37" vType="moped" vaporized=""/>
    <tripinfo id="moped.29" depart="40.00" departLane="beg_1" departPos="2.20" departSpeed="0.00" departDelay="11.00" arrival="215.00" arrivalLane="end_1" arrivalPos="10.00" arrivalSpeed="6.44" duration="175.00" routeLength="507.80" waitSteps="107" timeLoss="128.83" rerouteNo="0" devices="tripinfo_moped.29" vType="moped" vaporized=""/>
    <tripinfo id="moped.35" depart="49.00" departLane="beg_1" departPos="2.20" departSpeed="0.00" departDelay="14.00" arrival="216.00" arrivalLane="end_1" arrivalPos="10.00" arrivalSpeed="7.49" duration="167.00" routeLength="507.80" waitSteps="109" timeLoss="132.27" rerouteNo="0" devices="tripinfo_moped.35" vType="moped" vaporized=""/>
    <tripinfo id="moped.40" depart="57.00" departLane="beg_0" departPos="2.20" departSpeed="0.00" departDelay="17.00" arrival="216.00" arrivalLane="end_0" arrivalPos="10.00" arrivalSpeed="7.94" duration="159.00" routeLength="507.80" waitSteps="103" timeLoss="125.42" rerouteNo="0" devices="tripinfo_moped.40" vType="moped" vaporized=""/>
    <tripinfo id="moped.24" depart="30.00" departLane="beg_1" departPos="2.20" departSpeed="0.00" departDelay="6.00" arrival="217.00" arrivalLane="end_1" arrivalPos="10.00" arrivalSpeed="6.44" duration="187.00" routeLength="507.80" waitSteps="97" timeLoss="109.44" rerouteNo="0" devices="tripinfo_moped.24" vType="moped" vaporized=""/>
    <tripinfo id="moped.42" depart="60.00" departLane="beg_1" departPos="2.20" departSpeed="0.00" departDelay="18.00" arrival="217.00" arrivalLane="end_1" arrivalPos="10.00" arrivalSpeed="7.15" duration="157.00" routeLength="507.80" waitSteps="101" timeLoss="126.35" rerouteNo="0" devices="tripinfo_moped.42" vType="moped" vaporized=""/>
    <tripinfo id="moped.27" depart="37.00" departLane="beg_1" departPos="2.20" departSpeed="0.00" departDelay="10.00" arrival="217.00" arrivalLane="end_0" arrivalPos="10.00" arrivalSpeed="8.24" duration="180.00" routeLength="507.80" waitSteps="105" timeLoss="136.13" rerouteNo="0" devices="tripinfo_moped.27" vType="moped" vaporized=""/>
    <tripinfo id="moped.43" depart="63.00" departLane="beg_0" departPos="2.20" departSpeed="0.00" departDelay="20.00" arrival="217.00" arrivalLane="end_0" arrivalPos="10.00" arrivalSpeed="7.19" duration="154.00" routeLength="507.80" waitSteps="98" timeLoss="120.97" rerouteNo="0" devices="tripinfo_moped.43" vType="moped" vaporized=""/>
    <tripinfo id="moped.45" depart="66.00" departLane="beg_1" departPos="2.20" departSpeed="0.00" departDelay="21.00" arrival="218.00" arrivalLane="end_0" arrivalPos="10.00" arrivalSpeed="7.65" duration="152.00" routeLength="507.80" waitSteps="95" timeLoss="121.41" rerouteNo="0" devices="tripinfo_moped.45" vType="moped" vaporized=""/>
    <tripinfo id="moped.46" depart="67.00" departLane="beg_0" departPos="2.20" departSpeed="0.00" departDelay="21.00" arrival="218.00" arrivalLane="end_0" arrivalPos="10.00" arrivalSpeed="7.61" duration="151.00" routeLength="507.80" waitSteps="96" timeLoss="114.07" rerouteNo="0" devices="tripinfo_moped.46" vType="moped" vaporized=""/>
    <tripinfo id="moped.41" depart="58.00" departLane="beg_1" departPos="2.20" departSpeed="0.00" departDelay="17.00" arrival="218.00" arrivalLane="end_1" arrivalPos="10.00" arrivalSpeed="8.16" duration="160.00" routeLength="507.80" waitSteps="100" timeLoss="117.56" rerouteNo="0" devices="tripinfo_moped.41" vType="moped" vaporized=""/>
    <tripinfo id="moped.39" depart="54.00" departLane="beg_1" departPos="2.20" departSpeed="0.00" departDelay="15.00" arrival="218.00" arrivalLane="end_1" arrivalPos="10.00" arrivalSpeed="8.04" duration="164.00" routeLength="507.80" waitSteps="96" timeLoss="111.67" rerouteNo="0" devices="tripinfo_moped.39" vType="moped" vaporized=""/>
    <tripinfo id="moped.44" depart="64.00" departLane="beg_1" departPos="2.20" departSpeed="0.00" departDelay="20.00" arrival="219.00" arrivalLane="end_1" arrivalPos="10.00" arrivalSpeed="7.57" duration="155.00" routeLength="507.80" waitSteps="94" timeLoss="122.37" rerouteNo="0" devices="tripinfo_moped.44" vType="moped" vaporized=""/>
    <tripinfo id="moped.53" depart="79.00" departLane="beg_0" departPos="2.20" departSpeed="0.00" departDelay="26.00" arrival="219.00" arrivalLane="end_0" arrivalPos="10.00" arrivalSpeed="8.03" duration="140.00" routeLength="507.80" waitSteps="89" timeLoss="109.17" rerouteNo="0" devices="tripinfo_moped.53" vType="moped" vaporized=""/>
    <tripinfo id="moped.51" depart="73.00" departLane="beg_0" departPos="2.20" departSpeed="0.00" departDelay="22.00" arrival="220.00" arrivalLane="end_0" arrivalPos="10.00" arrivalSpeed="8.52" duration="147.00" routeLength="507.80" waitSteps="89" timeLoss="116.38" rerouteNo="0" devices="tripinfo_moped.51" vType="moped" vaporized=""/>
    <tripinfo id="moped.54" depart="81.00" departLane="beg_1" departPos="2.20" departSpeed="0.00" departDelay="27.00" arrival="220.00" arrivalLane="end_1" arrivalPos="10.00" arrivalSpeed="9.04" duration="139.00" routeLength="507.80" waitSteps="82" timeLoss="102.11" rerouteNo="0" devices="tripinfo_moped.54" vType="moped" vaporized=""/>
    <tripinfo id="moped.47" depart="67.00" departLane="beg_1" departPos="2.20" departSpeed="0.00" departDelay="20.00" arrival="220.00" arrivalLane="end_1" arrivalPos="10.00" arrivalSpeed="8.48" duration="153.00" routeLength="507.80" waitSteps="85" timeLoss="100.42" rerouteNo="0" devices="tripinfo_moped.47" vType="moped" vaporized=""/>
    <tripinfo id="moped.48" depart="68.00" departLane="beg_0" departPos="2.20" departSpeed="0.00" departDelay="20.00" arrival="221.00" arrivalLane="end_0" arrivalPos="10.00" arrivalSpeed="8.65" duration="153.00" routeLength="507.80" waitSteps="79" timeLoss="94.05" rerouteNo="0" devices="tripinfo_moped.48" vType="moped" vaporized=""/>
    <tripinfo id="moped.57" depart="85.00" departLane="beg_1" departPos="2.20" departSpeed="0.00" departDelay="28.00" arrival="221.00" arrivalLane="end_0" arrivalPos="10.00" arrivalSpeed="8.50" duration="136.00" routeLength="507.80" waitSteps="76" timeLoss="105.00" rerouteNo="0" devices="tripinfo_moped.57" vType="moped" vaporized=""/>
    <tripinfo id="moped.55" depart="82.00" departLane="beg_1" departPos="2.20" departSpeed="0.00" departDelay="27.00" arrival="221.00" arrivalLane="end_1" arrivalPos="10.00" arrivalSpeed="9.09" duration="139.00" routeLength="507.80" waitSteps="82" timeLoss="101.37" rerouteNo="0" devices="tripinfo_moped.55" vType="moped" vaporized=""/>
    <tripinfo id="moped.60" depart="92.00" departLane="beg_0" departPos="2.20" departSpeed="0.00" departDelay="32.00" arrival="221.00" arrivalLane="end_1" arrivalPos="10.00" arrivalSpeed="8.89" duration="129.00" routeLength="507.80" waitSteps="73" timeLoss="98.28" rerouteNo="0" devices="tripinfo_moped.60" vType="moped" vaporized=""/>
    <tripinfo id="moped.59" depart="88.00" departLane="beg_0" departPos="2.20" departSpeed="0.00" departDelay="29.00" arrival="222.00" arrivalLane="end_0" arrivalPos="10.00" arrivalSpeed="8.15" duration="134.00" routeLength="507.80" waitSteps="75" timeLoss="93.53" rerouteNo="0" devices="tripinfo_moped.59" vType="moped" vaporized=""/>
    <tripinfo id="moped.52" depart="75.00" departLane="beg_1" departPos="2.20" departSpeed="0.00" departDelay="23.00" arrival="222.00" arrivalLane="end_0" arrivalPos="10.00" arrivalSpeed="8.30" duration="147.00" routeLength="507.80" waitSteps="78" timeLoss="112.00" rerouteNo="0" devices="tripinfo_moped.52" vType="moped" vaporized=""/>
    <tripinfo id="moped.61" depart="95.00" departLane="beg_1" departPos="2.20" departSpeed="0.00" departDelay="34.00" arrival="222.00" arrivalLane="end_1" arrivalPos="10.00" arrivalSpeed="9.75" duration="127.00" routeLength="507.80" waitSteps="71" timeLoss="95.97" rerouteNo="0" devices="tripinfo_moped.61" vType="moped" vaporized=""/>
    <tripinfo id="moped.58" depart="88.00" departLane="beg_1" departPos="2.20" departSpeed="0.00" departDelay="30.00" arrival="222.00" arrivalLane="end_1" arrivalPos="10.00" arrivalSpeed="9.05" duration="134.00" routeLength="507.80" waitSteps="79" timeLoss="99.69" rerouteNo="0" devices="tripinfo_moped.58" vType="moped" vaporized=""/>
    <tripinfo id="moped.64" depart="98.00" departLane="beg_1" departPos="2.20" departSpeed="0.00" departDelay="34.00" arrival="223.00" arrivalLane="end_1" arrivalPos="10.00" arrivalSpeed="9.72" duration="125.00" routeLength="507.80" waitSteps="61" timeLoss="79.37" rerouteNo="0" devices="tripinfo_moped.64" vType="moped" vaporized=""/>
    <tripinfo id="moped.50" depart="73.00" departLane="beg_0" departPos="2.20" departSpeed="0.00" departDelay="23.00" arrival="223.00" arrivalLane="end_0" arrivalPos="10.00" arrivalSpeed="7.37" duration="150.00" routeLength="507.80" waitSteps="71" timeLoss="84.36" rerouteNo="0" devices="tripinfo_moped.50" vType="moped" vaporized=""/>
    <tripinfo id="moped.56" depart="83.00" departLane="beg_0" departPos="2.20" departSpeed="0.00" departDelay="27.00" arrival="224.00" arrivalLane="end_0" arrivalPos="10.00" arrivalSpeed="9.36" duration="141.00" routeLength="507.80" waitSteps="72" timeLoss="87.80" rerouteNo="0" devices="tripinfo_moped.56" vType="moped" vaporized=""/>
    <tripinfo id="moped.62" depart="95.00" departLane="beg_0" departPos="2.20" departSpeed="0.00" departDelay="33.00" arrival="224.00" arrivalLane="end_0" arrivalPos="10.00" arrivalSpeed="9.36" duration="129.00" routeLength="507.80" waitSteps="71" timeLoss="93.66" rerouteNo="0" devices="tripinfo_moped.62" vType="moped" vaporized=""/>
    <tripinfo id="moped.63" depart="98.00" departLane="beg_0" departPos="2.20" departSpeed="0.00" departDelay="35.00" arrival="224.00" arrivalLane="end_0" arrivalPos="10.00" arrivalSpeed="8.31" duration="126.00" routeLength="507.80" waitSteps="67" timeLoss="87.71" rerouteNo="0" devices="tripinfo_moped.63" vType="moped" vaporized=""/>
    <tripinfo id="moped.49" depart="71.00" departLane="beg_1" departPos="2.20" departSpeed="0.00" departDelay="22.00" arrival="224.00" arrivalLane="end_1" arrivalPos="10.00" arrivalSpeed="7.36" duration="153.00" routeLength="507.80" waitSteps="69" timeLoss="86.33" rerouteNo="0" devices="tripinfo_moped.49" vType="moped" vaporized=""/>
    <tripinfo id="moped.68" depart="105.00" departLane="beg_1" departPos="2.20" departSpeed="0.00" departDelay="37.00" arrival="224.00" arrivalLane="end_1" arrivalPos="10.00" arrivalSpeed="9.25" duration="119.00" routeLength="507.80" waitSteps="64" timeLoss="86.23" rerouteNo="0" devices="tripinfo_moped.68" vType="moped" vaporized=""/>
    <tripinfo id="moped.65" depart="101.00" departLane="beg_1" departPos="2.20" departSpeed="0.00" departDelay="36.00" arrival="225.00" arrivalLane="end_1" arrivalPos="10.00" arrivalSpeed="8.96" duration="124.00" routeLength="507.80" waitSteps="52" timeLoss="66.73" rerouteNo="0" devices="tripinfo_moped.65" vType="moped" vaporized=""/>
    <tripinfo id="moped.67" depart="103.00" departLane="beg_0" departPos="2.20" departSpeed="0.00" departDelay="36.00" arrival="225.00" arrivalLane="end_0" arrivalPos="10.00" arrivalSpeed="9.22" duration="122.00" routeLength="507.80" waitSteps="57" timeLoss="72.79" rerouteNo="0" devices="tripinfo_moped.67" vType="moped" vaporized=""/>
    <tripinfo id="moped.66" depart="101.00" departLane="beg_0" departPos="2.20" departSpeed="0.00" departDelay="35.00" arrival="226.00" arrivalLane="end_0" arrivalPos="10.00" arrivalSpeed="9.77" duration="125.00" routeLength="507.80" waitSteps="57" timeLoss="73.31" rerouteNo="0" devices="tripinfo_moped.66" vType="moped" vaporized=""/>
    <tripinfo id="moped.70" depart="109.00" departLane="beg_0" departPos="2.20" departSpeed="0.00" departDelay="39.00" arrival="226.00" arrivalLane="end_0" arrivalPos="10.00" arrivalSpeed="10.01" duration="117.00" routeLength="507.80" waitSteps="62" timeLoss="82.21" rerouteNo="0" devices="tripinfo_moped.70" vType="moped" vaporized=""/>
    <tripinfo id="moped.72" depart="112.00" departLane="beg_1" departPos="2.20" departSpeed="0.00" departDelay="40.00" arrival="226.00" arrivalLane="end_1" arrivalPos="10.00" arrivalSpeed="9.80" duration="114.00" routeLength="507.80" waitSteps="50" timeLoss="68.68" rerouteNo="0" devices="tripinfo_moped.72" vType="moped" vaporized=""/>
    <tripinfo id="moped.69" depart="108.00" departLane="beg_0" departPos="2.20" departSpeed="0.00" departDelay="39.00" arrival="226.00" arrivalLane="end_1" arrivalPos="10.00" arrivalSpeed="9.21" duration="118.00" routeLength="507.80" waitSteps="58" timeLoss="83.44" rerouteNo="0" devices="tripinfo_moped.69" vType="moped" vaporized=""/>
    <tripinfo id="moped.76" depart="119.00" departLane="beg_1" departPos="2.20" departSpeed="0.00" departDelay="43.00" arrival="226.00" arrivalLane="end_1" arrivalPos="10.00" arrivalSpeed="10.06" duration="107.00" routeLength="507.80" waitSteps="51" timeLoss="73.61" rerouteNo="0" devices="tripinfo_moped.76" vType="moped" vaporized=""/>
    <tripinfo id="moped.74" depart="116.00" departLane="beg_0" departPos="2.20" departSpeed="0.00" departDelay="42.00" arrival="227.00" arrivalLane="end_0" arrivalPos="10.00" arrivalSpeed="9.54" duration="111.00" routeLength="507.80" waitSteps="50" timeLoss="68.47" rerouteNo="0" devices="tripinfo_moped.74" vType="moped" vaporized=""/>
    <tripinfo id="moped.71" depart="110.00" departLane="beg_1" departPos="2.20" departSpeed="0.00" departDelay="39.00" arrival="228.00" arrivalLane="end_1" arrivalPos="10.00" arrivalSpeed="10.07" duration="118.00" routeLength="507.80" waitSteps="55" timeLoss="77.52" rerouteNo="0" devices="tripinfo_moped.71" vType="moped" vaporized=""/>
    <tripinfo id="moped.78" depart="122.00" departLane="beg_1" departPos="2.20" departSpeed="0.00" departDelay="44.00" arrival="228.00" arrivalLane="end_1" arrivalPos="10.00" arrivalSpeed="9.83" duration="106.00" routeLength="507.80" waitSteps="48" timeLoss="69.77" rerouteNo="0" devices="tripinfo_moped.78" vType="moped" vaporized=""/>
    <tripinfo id="moped.73" depart="115.00" departLane="beg_1" departPos="2.20" departSpeed="0.00" departDelay="42.00" arrival="228.00" arrivalLane="end_0" arrivalPos="10.00" arrivalSpeed="10.23" duration="113.00" routeLength="507.80" waitSteps="52" timeLoss="81.02" rerouteNo="0" devices="tripinfo_moped.73" vType="moped" vaporized=""/>
    <tripinfo id="moped.79" depart="124.00" departLane="beg_0" departPos="2.20" departSpeed="0.00" departDelay="45.00" arrival="228.00" arrivalLane="end_0" arrivalPos="10.00" arrivalSpeed="10.88" duration="104.00" routeLength="507.80" waitSteps="51" timeLoss="73.04" rerouteNo="0" devices="tripinfo_moped.79" vType="moped" vaporized=""/>
    <tripinfo id="moped.82" depart="127.00" departLane="beg_0" departPos="2.20" departSpeed="0.00" departDelay="45.00" arrival="229.00" arrivalLane="end_0" arrivalPos="10.00" arrivalSpeed="10.46" duration="102.00" routeLength="507.80" waitSteps="44" timeLoss="66.61" rerouteNo="0" devices="tripinfo_moped.82" vType="moped" vaporized=""/>
    <tripinfo id="moped.75" depart="119.00" departLane="beg_0" departPos="2.20" departSpeed="0.00" departDelay="44.00" arrival="229.00" arrivalLane="end_0" arrivalPos="10.00" arrivalSpeed="10.43" duration="110.00" routeLength="507.80" waitSteps="52" timeLoss="71.37" rerouteNo="0" devices="tripinfo_moped.75" vType="moped" vaporized=""/>
    <tripinfo id="moped.80" depart="127.00" departLane="beg_0" departPos="2.20" departSpeed="0.00" departDelay="47.00" arrival="229.00" arrivalLane="end_0" arrivalPos="10.00" arrivalSpeed="10.20" duration="102.00" routeLength="507.80" waitSteps="47" timeLoss="68.75" rerouteNo="0" devices="tripinfo_moped.80" vType="moped" vaporized=""/>
    <tripinfo id="moped.84" depart="131.00" departLane="beg_0" departPos="2.20" departSpeed="0.00" departDelay="47.00" arrival="229.00" arrivalLane="end_1" arrivalPos="10.00" arrivalSpeed="10.52" duration="98.00" routeLength="507.80" waitSteps="41" timeLoss="67.08" rerouteNo="0" devices="tripinfo_moped.84" vType="moped" vaporized=""/>
    <tripinfo id="moped.77" depart="120.00" departLane="beg_1" departPos="2.20" departSpeed="0.00" departDelay="43.00" arrival="229.00" arrivalLane="end_1" arrivalPos="10.00" arrivalSpeed="9.87" duration="109.00" routeLength="507.80" waitSteps="50" timeLoss="70.07" rerouteNo="0" devices="tripinfo_moped.77" vType="moped" vaporized=""/>
    <tripinfo id="moped.81" depart="127.00" departLane="beg_1" departPos="2.20" departSpeed="0.00" departDelay="46.00" arrival="230.00" arrivalLane="end_1" arrivalPos="10.00" arrivalSpeed="11.27" duration="103.00" routeLength="507.80" waitSteps="43" timeLoss="65.43" rerouteNo="0" devices="tripinfo_moped.81" vType="moped" vaporized=""/>
    <tripinfo id="moped.88" depart="134.00" departLane="beg_0" departPos="2.20" departSpeed="0.00" departDelay="46.00" arrival="230.00" arrivalLane="end_0" arrivalPos="10.00" arrivalSpeed="10.07" duration="96.00" routeLength="507.80" waitSteps="40" timeLoss="60.06" rerouteNo="0" devices="tripinfo_moped.88" vType="moped" vaporized=""/>
    <tripinfo id="moped.85" depart="132.00" departLane="beg_1" departPos="2.20" departSpeed="0.00" departDelay="47.00" arrival="230.00" arrivalLane="end_1" arrivalPos="10.00" arrivalSpeed="10.55" duration="98.00" routeLength="507.80" waitSteps="39" timeLoss="58.53" rerouteNo="0" devices="tripinfo_moped.85" vType="moped" vaporized=""/>