<?xml version="1.0" encoding="UTF-8"?>

<!-- generated on Thu Feb  4 13:22:26 2016 by SUMO Version dev-SVN-r19881
<?xml version="1.0" encoding="UTF-8"?>

<configuration xmlns:xsi="http://www.w3.org/2001/XMLSchema-instance" xsi:noNamespaceSchemaLocation="http://sumo.dlr.de/xsd/sumoConfiguration.xsd">

    <input>
        <net-file value="net.net.xml"/>
        <route-files value="input_routes.rou.xml"/>
    </input>

    <output>
        <tripinfo-output value="tripinfos.xml"/>
    </output>

    <processing>
        <lateral-resolution value="1.1"/>
    </processing>

    <report>
        <xml-validation value="never"/>
        <no-step-log value="true"/>
    </report>

</configuration>
-->

<tripinfos xmlns:xsi="http://www.w3.org/2001/XMLSchema-instance" xsi:noNamespaceSchemaLocation="http://sumo.dlr.de/xsd/tripinfo_file.xsd">
    <tripinfo id="moped.0" depart="0.00" departLane="beg_0" departPos="2.20" departSpeed="0.00" departDelay="0.00" arrival="204.00" arrivalLane="end_0" arrivalPos="10.00" arrivalSpeed="4.54" duration="204.00" routeLength="507.80" waitSteps="159" timeLoss="172.86" rerouteNo="0" devices="tripinfo_moped.0" vType="moped" vaporized=""/>
    <tripinfo id="moped.4" depart="4.00" departLane="beg_0" departPos="2.20" departSpeed="0.00" departDelay="0.00" arrival="204.00" arrivalLane="end_0" arrivalPos="10.00" arrivalSpeed="4.26" duration="200.00" routeLength="507.80" waitSteps="150" timeLoss="166.38" rerouteNo="0" devices="tripinfo_moped.4" vType="moped" vaporized=""/>
    <tripinfo id="moped.2" depart="2.00" departLane="beg_0" departPos="2.20" departSpeed="0.00" departDelay="0.00" arrival="204.00" arrivalLane="end_0" arrivalPos="10.00" arrivalSpeed="3.82" duration="202.00" routeLength="507.80" waitSteps="151" timeLoss="166.49" rerouteNo="0" devices="tripinfo_moped.2" vType="moped" vaporized=""/>
    <tripinfo id="moped.1" depart="1.00" departLane="beg_1" departPos="2.20" departSpeed="0.00" departDelay="0.00" arrival="204.00" arrivalLane="end_1" arrivalPos="10.00" arrivalSpeed="4.43" duration="203.00" routeLength="507.80" waitSteps="145" timeLoss="157.87" rerouteNo="0" devices="tripinfo_moped.1" vType="moped" vaporized=""/>
    <tripinfo id="moped.6" depart="7.00" departLane="beg_1" departPos="2.20" departSpeed="0.00" departDelay="1.00" arrival="204.00" arrivalLane="end_1" arrivalPos="10.00" arrivalSpeed="4.45" duration="197.00" routeLength="507.80" waitSteps="148" timeLoss="164.69" rerouteNo="0" devices="tripinfo_moped.6" vType="moped" vaporized=""/>
    <tripinfo id="moped.3" depart="4.00" departLane="beg_1" departPos="2.20" departSpeed="0.00" departDelay="1.00" arrival="205.00" arrivalLane="end_1" arrivalPos="10.00" arrivalSpeed="4.24" duration="201.00" routeLength="507.80" waitSteps="147" timeLoss="170.27" rerouteNo="0" devices="tripinfo_moped.3" vType="moped" vaporized=""/>
    <tripinfo id="moped.12" depart="15.00" departLane="beg_1" departPos="2.20" departSpeed="0.00" departDelay="3.00" arrival="206.00" arrivalLane="end_1" arrivalPos="10.00" arrivalSpeed="5.08" duration="191.00" routeLength="507.80" waitSteps="141" timeLoss="158.84" rerouteNo="0" devices="tripinfo_moped.12" vType="moped" vaporized=""/>
    <tripinfo id="moped.8" depart="8.00" departLane="beg_1" departPos="2.20" departSpeed="0.00" departDelay="0.00" arrival="206.00" arrivalLane="end_1" arrivalPos="10.00" arrivalSpeed="4.75" duration="198.00" routeLength="507.80" waitSteps="139" timeLoss="153.02" rerouteNo="0" devices="tripinfo_moped.8" vType="moped" vaporized=""/>
    <tripinfo id="moped.14" depart="18.00" departLane="beg_0" departPos="2.20" departSpeed="0.00" departDelay="4.00" arrival="207.00" arrivalLane="end_0" arrivalPos="10.00" arrivalSpeed="5.46" duration="189.00" routeLength="507.80" waitSteps="133" timeLoss="151.04" rerouteNo="0" devices="tripinfo_moped.14" vType="moped" vaporized=""/>
    <tripinfo id="moped.7" depart="8.00" departLane="beg_0" departPos="2.20" departSpeed="0.00" departDelay="1.00" arrival="207.00" arrivalLane="end_0" arrivalPos="10.00" arrivalSpeed="5.05" duration="199.00" routeLength="507.80" waitSteps="130" timeLoss="142.91" rerouteNo="0" devices="tripinfo_moped.7" vType="moped" vaporized=""/>
    <tripinfo id="moped.11" depart="12.00" departLane="beg_0" departPos="2.20" departSpeed="0.00" departDelay="1.00" arrival="207.00" arrivalLane="end_0" arrivalPos="10.00" arrivalSpeed="5.33" duration="195.00" routeLength="507.80" waitSteps="142" timeLoss="160.84" rerouteNo="0" devices="tripinfo_moped.11" vType="moped" vaporized=""/>
    <tripinfo id="moped.10" depart="12.00" departLane="beg_0" departPos="2.20" departSpeed="0.00" departDelay="2.00" arrival="207.00" arrivalLane="end_1" arrivalPos="10.00" arrivalSpeed="5.47" duration="195.00" routeLength="507.80" waitSteps="146" timeLoss="164.25" rerouteNo="0" devices="tripinfo_moped.10" vType="moped" vaporized=""/>
    <tripinfo id="moped.15" depart="19.00" departLane="beg_1" departPos="2.20" departSpeed="0.00" departDelay="4.00" arrival="208.00" arrivalLane="end_1" arrivalPos="10.00" arrivalSpeed="5.50" duration="189.00" routeLength="507.80" waitSteps="130" timeLoss="142.01" rerouteNo="0" devices="tripinfo_moped.15" vType="moped" vaporized=""/>
    <tripinfo id="moped.21" depart="31.00" departLane="beg_0" departPos="2.20" departSpeed="0.00" departDelay="10.00" arrival="209.00" arrivalLane="end_0" arrivalPos="10.00" arrivalSpeed="6.10" duration="178.00" routeLength="507.80" waitSteps="123" timeLoss="142.12" rerouteNo="0" devices="tripinfo_moped.21" vType="moped" vaporized=""/>
    <tripinfo id="moped.17" depart="22.00" departLane="beg_0" departPos="2.20" departSpeed="0.00" departDelay="5.00" arrival="209.00" arrivalLane="end_0" arrivalPos="10.00" arrivalSpeed="5.55" duration="187.00" routeLength="507.80" waitSteps="125" timeLoss="142.41" rerouteNo="0" devices="tripinfo_moped.17" vType="moped" vaporized=""/>
    <tripinfo id="moped.18" depart="26.00" departLane="beg_0" departPos="2.20" departSpeed="0.00" departDelay="8.00" arrival="209.00" arrivalLane="end_0" arrivalPos="10.00" arrivalSpeed="5.33" duration="183.00" routeLength="507.80" waitSteps="119" timeLoss="137.67" rerouteNo="0" devices="tripinfo_moped.18" vType="moped" vaporized=""/>
    <tripinfo id="moped.13" depart="15.00" departLane="beg_0" departPos="2.20" departSpeed="0.00" departDelay="2.00" arrival="209.00" arrivalLane="end_1" arrivalPos="10.00" arrivalSpeed="5.81" duration="194.00" routeLength="507.80" waitSteps="143" timeLoss="163.21" rerouteNo="0" devices="tripinfo_moped.13" vType="moped" vaporized=""/>
    <tripinfo id="moped.19" depart="26.00" departLane="beg_1" departPos="2.20" departSpeed="0.00" departDelay="7.00" arrival="209.00" arrivalLane="end_1" arrivalPos="10.00" arrivalSpeed="5.63" duration="183.00" routeLength="507.80" waitSteps="133" timeLoss="152.29" rerouteNo="0" devices="tripinfo_moped.19" vType="moped" vaporized=""/>
    <tripinfo id="moped.22" depart="32.00" departLane="beg_1" departPos="2.20" departSpeed="0.00" departDelay="10.00" arrival="210.00" arrivalLane="end_1" arrivalPos="10.00" arrivalSpeed="6.19" duration="178.00" routeLength="507.80" waitSteps="120" timeLoss="138.95" rerouteNo="0" devices="tripinfo_moped.22" vType="moped" vaporized=""/>
    <tripinfo id="moped.20" depart="27.00" departLane="beg_0" departPos="2.20" departSpeed="0.00" departDelay="7.00" arrival="211.00" arrivalLane="end_1" arrivalPos="10.00" arrivalSpeed="6.54" duration="184.00" routeLength="507.80" waitSteps="131" timeLoss="148.92" rerouteNo="0" devices="tripinfo_moped.20" vType="moped" vaporized=""/>
    <tripinfo id="moped.9" depart="11.00" departLane="beg_1" departPos="2.20" departSpeed="0.00" departDelay="2.00" arrival="211.00" arrivalLane="end_1" arrivalPos="10.00" arrivalSpeed="5.56" duration="200.00" routeLength="507.80" waitSteps="122" timeLoss="135.81" rerouteNo="0" devices="tripinfo_moped.9" vType="moped" vaporized=""/>
    <tripinfo id="moped.26" depart="37.00" departLane="beg_0" departPos="2.20" departSpeed="0.00" departDelay="11.00" arrival="211.00" arrivalLane="end_0" arrivalPos="10.00" arrivalSpeed="6.31" duration="174.00" routeLength="507.80" waitSteps="111" timeLoss="124.78" rerouteNo="0" devices="tripinfo_moped.26" vType="moped" vaporized=""/>
    <tripinfo id="moped.23" depart="33.00" departLane="beg_0" departPos="2.20" departSpeed="0.00" departDelay="10.00" arrival="211.00" arrivalLane="end_0" arrivalPos="10.00" arrivalSpeed="6.60" duration="178.00" routeLength="507.80" waitSteps="109" timeLoss="122.87" rerouteNo="0" devices="tripinfo_moped.23" vType="moped" vaporized=""/>
    <tripinfo id="moped.5" depart="6.00" departLane="beg_0" departPos="2.20" departSpeed="0.00" departDelay="1.00" arrival="211.00" arrivalLane="end_0" arrivalPos="10.00" arrivalSpeed="5.68" duration="205.00" routeLength="507.80" waitSteps="118" timeLoss="130.75" rerouteNo="0" devices="tripinfo_moped.5" vType="moped" vaporized=""/>
    <tripinfo id="moped.29" depart="41.00" departLane="beg_0" departPos="2.20" departSpeed="0.00" departDelay="12.00" arrival="213.00" arrivalLane="end_0" arrivalPos="10.00" arrivalSpeed="6.84" duration="172.00" routeLength="507.80" waitSteps="110" timeLoss="125.37" rerouteNo="0" devices="tripinfo_moped.29" vType="moped" vaporized=""/>
    <tripinfo id="moped.34" depart="50.00" departLane="beg_0" departPos="2.20" departSpeed="0.00" departDelay="16.00" arrival="213.00" arrivalLane="end_0" arrivalPos="10.00" arrivalSpeed="6.63" duration="163.00" routeLength="507.80" waitSteps="104" timeLoss="125.54" rerouteNo="0" devices="tripinfo_moped.34" vType="moped" vaporized=""/>
    <tripinfo id="moped.30" depart="44.00" departLane="beg_0" departPos="2.20" departSpeed="0.00" departDelay="14.00" arrival="213.00" arrivalLane="end_0" arrivalPos="10.00" arrivalSpeed="6.02" duration="169.00" routeLength="507.80" waitSteps="114" timeLoss="139.12" rerouteNo="0" devices="tripinfo_moped.30" vType="moped" vaporized=""/>
    <tripinfo id="moped.27" depart="39.00" departLane="beg_1" departPos="2.20" departSpeed="0.00" departDelay="12.00" arrival="213.00" arrivalLane="end_1" arrivalPos="10.00" arrivalSpeed="6.72" duration="174.00" routeLength="507.80" waitSteps="114" timeLoss="130.32" rerouteNo="0" devices="tripinfo_moped.27" vType="moped" vaporized=""/>
    <tripinfo id="moped.16" depart="22.00" departLane="beg_1" departPos="2.20" departSpeed="0.00" departDelay="6.00" arrival="213.00" arrivalLane="end_1" arrivalPos="10.00" arrivalSpeed="6.50" duration="191.00" routeLength="507.80" waitSteps="118" timeLoss="132.98" rerouteNo="0" devices="tripinfo_moped.16" vType="moped" vaporized=""/>
    <tripinfo id="moped.28" depart="41.00" departLane="beg_1" departPos="2.20" departSpeed="0.00" departDelay="13.00" arrival="213.00" arrivalLane="end_1" arrivalPos="10.00" arrivalSpeed="6.41" duration="172.00" routeLength="507.80" waitSteps="119" timeLoss="141.38" rerouteNo="0" devices="tripinfo_moped.28" vType="moped" vaporized=""/>
    <tripinfo id="moped.33" depart="48.00" departLane="beg_1" departPos="2.20" departSpeed="0.00" departDelay="15.00" arrival="215.00" arrivalLane="end_1" arrivalPos="10.00" arrivalSpeed="7.42" duration="167.00" routeLength="507.80" waitSteps="109" timeLoss="136.11" rerouteNo="0" devices="tripinfo_moped.33" vType="moped" vaporized=""/>
    <tripinfo id="moped.31" depart="45.00" departLane="beg_1" departPos="2.20" departSpeed="0.00" departDelay="14.00" arrival="215.00" arrivalLane="end_1" arrivalPos="10.00" arrivalSpeed="7.72" duration="170.00" routeLength="507.80" waitSteps="118" timeLoss="139.18" rerouteNo="0" devices="tripinfo_moped.31" vType="moped" vaporized=""/>
    <tripinfo id="moped.35" depart="53.00" departLane="beg_1" departPos="2.20" departSpeed="0.00" departDelay="18.00" arrival="215.00" arrivalLane="end_1" arrivalPos="10.00" arrivalSpeed="7.01" duration="162.00" routeLength="507.80" waitSteps="105" timeLoss="127.15" rerouteNo="0" devices="tripinfo_moped.35" vType="moped" vaporized=""/>
    <tripinfo id="moped.38" depart="59.00" departLane="beg_0" departPos="2.20" departSpeed="0.00" departDelay="21.00" arrival="215.00" arrivalLane="end_0" arrivalPos="10.00" arrivalSpeed="7.33" duration="156.00" routeLength="507.80" waitSteps="105" timeLoss="125.14" rerouteNo="0" devices="tripinfo_moped.38" vType="moped" vaporized=""/>
    <tripinfo id="moped.36" depart="54.00" departLane="beg_0" departPos="2.20" departSpeed="0.00" departDelay="18.00" arrival="215.00" arrivalLane="end_0" arrivalPos="10.00" arrivalSpeed="7.25" duration="161.00" routeLength="507.80" waitSteps="104" timeLoss="120.95" rerouteNo="0" devices="tripinfo_moped.36" vType="moped" vaporized=""/>
    <tripinfo id="moped.32" depart="46.00" departLane="beg_0" departPos="2.20" departSpeed="0.00" departDelay="14.00" arrival="215.00" arrivalLane="end_0" arrivalPos="10.00" arrivalSpeed="6.48" duration="169.00" routeLength="507.80" waitSteps="111" timeLoss="132.95" rerouteNo="0" devices="tripinfo_moped.32" vType="moped" vaporized=""/>
    <tripinfo id="moped.25" depart="36.00" departLane="beg_1" departPos="2.20" departSpeed="0.00" departDelay="11.00" arrival="216.00" arrivalLane="end_1" arrivalPos="10.00" arrivalSpeed="7.57" duration="180.00" routeLength="507.80" waitSteps="107" timeLoss="120.65" rerouteNo="0" devices="tripinfo_moped.25" vType="moped" vaporized=""/>
    <tripinfo id="moped.45" depart="68.00" departLane="beg_0" departPos="2.20" departSpeed="0.00" departDelay="23.00" arrival="217.00" arrivalLane="end_0" arrivalPos="10.00" arrivalSpeed="6.90" duration="149.00" routeLength="507.80" waitSteps="95" timeLoss="118.14" rerouteNo="0" devices="tripinfo_moped.45" vType="moped" vaporized=""/>
    <tripinfo id="moped.43" depart="65.00" departLane="beg_0" departPos="2.20" departSpeed="0.00" departDelay="22.00" arrival="217.00" arrivalLane="end_0" arrivalPos="10.00" arrivalSpeed="7.34" duration="152.00" routeLength="507.80" waitSteps="100" timeLoss="118.80" rerouteNo="0" devices="tripinfo_moped.43" vType="moped" vaporized=""/>
    <tripinfo id="moped.24" depart="34.00" departLane="beg_0" departPos="2.20" departSpeed="0.00" departDelay="10.00" arrival="217.00" arrivalLane="end_0" arrivalPos="10.00" arrivalSpeed="6.38" duration="183.00" routeLength="507.80" waitSteps="92" timeLoss="106.13" rerouteNo="0" devices="tripinfo_moped.24" vType="moped" vaporized=""/>
    <tripinfo id="moped.37" depart="57.00" departLane="beg_1" departPos="2.20" departSpeed="0.00" departDelay="20.00" arrival="217.00" arrivalLane="end_1" arrivalPos="10.00" arrivalSpeed="7.70" duration="160.00" routeLength="507.80" waitSteps="107" timeLoss="129.15" rerouteNo="0" devices="tripinfo_moped.37" vType="moped" vaporized=""/>
    <tripinfo id="moped.42" depart="63.00" departLane="beg_1" departPos="2.20" departSpeed="0.00" departDelay="21.00" arrival="217.00" arrivalLane="end_1" arrivalPos="10.00" arrivalSpeed="7.32" duration="154.00" routeLength="507.80" waitSteps="102" timeLoss="123.25" rerouteNo="0" devices="tripinfo_moped.42" vType="moped" vaporized=""/>
    <tripinfo id="moped.39" depart="61.00" departLane="beg_1" departPos="2.20" departSpeed="0.00" departDelay="22.00" arrival="218.00" arrivalLane="end_1" arrivalPos="10.00" arrivalSpeed="8.49" duration="157.00" routeLength="507.80" waitSteps="89" timeLoss="104.46" rerouteNo="0" devices="tripinfo_moped.39" vType="moped" vaporized=""/>
    <tripinfo id="moped.40" depart="61.00" departLane="beg_1" departPos="2.20" departSpeed="0.00" departDelay="21.00" arrival="218.00" arrivalLane="end_1" arrivalPos="10.00" arrivalSpeed="7.75" duration="157.00" routeLength="507.80" waitSteps="103" timeLoss="123.44" rerouteNo="0" devices="tripinfo_moped.40" vType="moped" vaporized=""/>
    <tripinfo id="moped.52" depart="79.00" departLane="beg_0" departPos="2.20" departSpeed="0.00" departDelay="27.00" arrival="218.00" arrivalLane="end_0" arrivalPos="10.00" arrivalSpeed="6.87" duration="139.00" routeLength="507.80" waitSteps="85" timeLoss="104.09" rerouteNo="0" devices="tripinfo_moped.52" vType="moped" vaporized=""/>
    <tripinfo id="moped.44" depart="68.00" departLane="beg_1" departPos="2.20" departSpeed="0.00" departDelay="24.00" arrival="219.00" arrivalLane="end_1" arrivalPos="10.00" arrivalSpeed="7.77" duration="151.00" routeLength="507.80" waitSteps="95" timeLoss="118.51" rerouteNo="0" devices="tripinfo_moped.44" vType="moped" vaporized=""/>
    <tripinfo id="moped.41" depart="63.00" departLane="beg_0" departPos="2.20" departSpeed="0.00" departDelay="22.00" arrival="219.00" arrivalLane="end_0" arrivalPos="10.00" arrivalSpeed="8.15" duration="156.00" routeLength="507.80" waitSteps="94" timeLoss="113.37" rerouteNo="0" devices="tripinfo_moped.41" vType="moped" vaporized=""/>
    <tripinfo id="moped.55" depart="83.00" departLane="beg_0" departPos="2.20" departSpeed="0.00" departDelay="28.00" arrival="219.00" arrivalLane="end_0" arrivalPos="10.00" arrivalSpeed="8.14" duration="136.00" routeLength="507.80" waitSteps="76" timeLoss="98.61" rerouteNo="0" devices="tripinfo_moped.55" vType="moped" vaporized=""/>
    <tripinfo id="moped.58" depart="87.00" departLane="beg_0" departPos="2.20" departSpeed="0.00" departDelay="29.00" arrival="220.00" arrivalLane="end_0" arrivalPos="10.00" arrivalSpeed="8.37" duration="133.00" routeLength="507.80" waitSteps="76" timeLoss="98.47" rerouteNo="0" devices="tripinfo_moped.58" vType="moped" vaporized=""/>
    <tripinfo id="moped.59" depart="90.00" departLane="beg_0" departPos="2.20" departSpeed="0.00" departDelay="31.00" arrival="220.00" arrivalLane="end_0" arrivalPos="10.00" arrivalSpeed="7.84" duration="130.00" routeLength="507.80" waitSteps="70" timeLoss="89.53" rerouteNo="0" devices="tripinfo_moped.59" vType="moped" vaporized=""/>
    <tripinfo id="moped.53" depart="79.00" departLane="beg_1" departPos="2.20" departSpeed="0.00" departDelay="26.00" arrival="220.00" arrivalLane="end_1" arrivalPos="10.00" arrivalSpeed="8.55" duration="141.00" routeLength="507.80" waitSteps="84" timeLoss="110.32" rerouteNo="0" devices="tripinfo_moped.53" vType="moped" vaporized=""/>
    <tripinfo id="moped.51" depart="78.00" departLane="beg_1" departPos="2.20" departSpeed="0.00" departDelay="27.00" arrival="220.00" arrivalLane="end_1" arrivalPos="10.00" arrivalSpeed="8.14" duration="142.00" routeLength="507.80" waitSteps="89" timeLoss="111.43" rerouteNo="0" devices="tripinfo_moped.51" vType="moped" vaporized=""/>
    <tripinfo id="moped.46" depart="69.00" departLane="beg_1" departPos="2.20" departSpeed="0.00" departDelay="23.00" arrival="221.00" arrivalLane="end_1" arrivalPos="10.00" arrivalSpeed="8.84" duration="152.00" routeLength="507.80" waitSteps="94" timeLoss="114.78" rerouteNo="0" devices="tripinfo_moped.46" vType="moped" vaporized=""/>
    <tripinfo id="moped.48" depart="72.00" departLane="beg_0" departPos="2.20" departSpeed="0.00" departDelay="24.00" arrival="221.00" arrivalLane="end_0" arrivalPos="10.00" arrivalSpeed="8.05" duration="149.00" routeLength="507.80" waitSteps="74" timeLoss="90.38" rerouteNo="0" devices="tripinfo_moped.48" vType="moped" vaporized=""/>
    <tripinfo id="moped.64" depart="96.00" departLane="beg_0" departPos="2.20" departSpeed="0.00" departDelay="32.00" arrival="221.00" arrivalLane="end_0" arrivalPos="10.00" arrivalSpeed="8.30" duration="125.00" routeLength="507.80" waitSteps="64" timeLoss="79.96" rerouteNo="0" devices="tripinfo_moped.64" vType="moped" vaporized=""/>
    <tripinfo id="moped.50" depart="76.00" departLane="beg_0" departPos="2.20" departSpeed="0.00" departDelay="26.00" arrival="222.00" arrivalLane="end_0" arrivalPos="10.00" arrivalSpeed="7.50" duration="146.00" routeLength="507.80" waitSteps="68" timeLoss="80.73" rerouteNo="0" devices="tripinfo_moped.50" vType="moped" vaporized=""/>
    <tripinfo id="moped.56" depart="83.00" departLane="beg_0" departPos="2.20" departSpeed="0.00" departDelay="27.00" arrival="222.00" arrivalLane="end_0" arrivalPos="10.00" arrivalSpeed="8.39" duration="139.00" routeLength="507.80" waitSteps="71" timeLoss="86.42" rerouteNo="0" devices="tripinfo_moped.56" vType="moped" vaporized=""/>
    <tripinfo id="moped.47" depart="72.00" departLane="beg_1" departPos="2.20" departSpeed="0.00" departDelay="25.00" arrival="222.00" arrivalLane="end_1" arrivalPos="10.00" arrivalSpeed="9.27" duration="150.00" routeLength="507.80" waitSteps="81" timeLoss="97.12" rerouteNo="0" devices="tripinfo_moped.47" vType="moped" vaporized=""/>
    <tripinfo id="moped.54" depart="83.00" departLane="beg_1" departPos="2.20" departSpeed="0.00" departDelay="29.00" arrival="222.00" arrivalLane="end_1" arrivalPos="10.00" arrivalSpeed="9.26" duration="139.00" routeLength="507.80" waitSteps="83" timeLoss="102.35" rerouteNo="0" devices="tripinfo_moped.54" vType="moped" vaporized=""/>
    <tripinfo id="moped.70" depart="106.00" departLane="beg_0" departPos="2.20" departSpeed="0.00" departDelay="36.00" arrival="223.00" arrivalLane="end_0" arrivalPos="10.00" arrivalSpeed="9.69" duration="117.00" routeLength="507.80" waitSteps="61" timeLoss="82.39" rerouteNo="0" devices="tripinfo_moped.70" vType="moped" vaporized=""/>
    <tripinfo id="moped.57" depart="87.00" departLane="beg_1" departPos="2.20" departSpeed="0.00" departDelay="30.00" arrival="223.00" arrivalLane="end_1" arrivalPos="10.00" arrivalSpeed="9.65" duration="136.00" routeLength="507.80" waitSteps="81" timeLoss="104.94" rerouteNo="0" devices="tripinfo_moped.57" vType="moped" vaporized=""/>
    <tripinfo id="moped.60" depart="91.00" departLane="beg_1" departPos="2.20" departSpeed="0.00" departDelay="31.00" arrival="223.00" arrivalLane="end_1" arrivalPos="10.00" arrivalSpeed="8.76" duration="132.00" routeLength="507.80" waitSteps="81" timeLoss="101.44" rerouteNo="0" devices="tripinfo_moped.60" vType="moped" vaporized=""/>
    <tripinfo id="moped.61" depart="94.00" departLane="beg_0" departPos="2.20" departSpeed="0.00" departDelay="33.00" arrival="224.00" arrivalLane="end_1" arrivalPos="10.00" arrivalSpeed="9.68" duration="130.00" routeLength="507.80" waitSteps="76" timeLoss="99.01" rerouteNo="0" devices="tripinfo_moped.61" vType="moped" vaporized=""/>
    <tripinfo id="moped.62" depart="94.00" departLane="beg_1" departPos="2.20" departSpeed="0.00" departDelay="32.00" arrival="224.00" arrivalLane="end_1" arrivalPos="10.00" arrivalSpeed="8.83" duration="130.00" routeLength="507.80" waitSteps="72" timeLoss="95.04" rerouteNo="0" devices="tripinfo_moped.62" vType="moped" vaporized=""/>
    <tripinfo id="moped.73" depart="110.00" departLane="beg_0" departPos="2.20" departSpeed="0.00" departDelay="37.00" arrival="224.00" arrivalLane="end_0" arrivalPos="10.00" arrivalSpeed="9.37" duration="114.00" routeLength="507.80" waitSteps="60" timeLoss="82.09" rerouteNo="0" devices="tripinfo_moped.73" vType="moped" vaporized=""/>
    <tripinfo id="moped.68" depart="103.00" departLane="beg_0" departPos="2.20" departSpeed="0.00" departDelay="35.00" arrival="224.00" arrivalLane="end_0" arrivalPos="10.00" arrivalSpeed="8.28" duration="121.00" routeLength="507.80" waitSteps="67" timeLoss="88.15" rerouteNo="0" devices="tripinfo_moped.68" vType="moped" vaporized=""/>
    <tripinfo id="moped.67" depart="102.00" departLane="beg_1" departPos="2.20" departSpeed="0.00" departDelay="35.00" arrival="225.00" arrivalLane="end_0" arrivalPos="10.00" arrivalSpeed="9.80" duration="123.00" routeLength="507.80" waitSteps="54" timeLoss="73.01" rerouteNo="0" devices="tripinfo_moped.67" vType="moped" vaporized=""/>
    <tripinfo id="moped.75" depart="114.00" departLane="beg_0" departPos="2.20" departSpeed="0.00" departDelay="39.00" arrival="225.00" arrivalLane="end_0" arrivalPos="10.00" arrivalSpeed="9.21" duration="111.00" routeLength="507.80" waitSteps="51" timeLoss="72.44" rerouteNo="0" devices="tripinfo_moped.75" vType="moped" vaporized=""/>
    <tripinfo id="moped.63" depart="95.00" departLane="beg_1" departPos="2.20" departSpeed="0.00" departDelay="32.00" arrival="225.00" arrivalLane="end_1" arrivalPos="10.00" arrivalSpeed="9.66" duration="130.00" routeLength="507.80" waitSteps="72" timeLoss="91.63" rerouteNo="0" devices="tripinfo_moped.63" vType="moped" vaporized=""/>
    <tripinfo id="moped.71" depart="106.00" departLane="beg_0" departPos="2.20" departSpeed="0.00" departDelay="35.00" arrival="226.00" arrivalLane="end_0" arrivalPos="10.00" arrivalSpeed="9.18" duration="120.00" routeLength="507.80" waitSteps="60" timeLoss="79.64" rerouteNo="0" devices="tripinfo_moped.71" vType="moped" vaporized=""/>
    <tripinfo id="moped.77" depart="118.00" departLane="beg_0" departPos="2.20" departSpeed="0.00" departDelay="41.00" arrival="226.00" arrivalLane="end_0" arrivalPos="10.00" arrivalSpeed="10.18" duration="108.00" routeLength="507.80" waitSteps="49" timeLoss="69.06" rerouteNo="0" devices="tripinfo_moped.77" vType="moped" vaporized=""/>
    <tripinfo id="moped.69" depart="103.00" departLane="beg_1" departPos="2.20" departSpeed="0.00" departDelay="34.00" arrival="226.00" arrivalLane="end_1" arrivalPos="10.00" arrivalSpeed="9.80" duration="123.00" routeLength="507.80" waitSteps="66" timeLoss="88.03" rerouteNo="0" devices="tripinfo_moped.69" vType="moped" vaporized=""/>
    <tripinfo id="moped.80" depart="123.00" departLane="beg_0" departPos="2.20" departSpeed="0.00" departDelay="43.00" arrival="227.00" arrivalLane="end_0" arrivalPos="10.00" arrivalSpeed="9.51" duration="104.00" routeLength="507.80" waitSteps="43" timeLoss="70.68" rerouteNo="0" devices="tripinfo_moped.80" vType="moped" vaporized=""/>
    <tripinfo id="moped.74" depart="111.00" departLane="beg_1" departPos="2.20" departSpeed="0.00" departDelay="37.00" arrival="227.00" arrivalLane="end_0" arrivalPos="10.00" arrivalSpeed="9.02" duration="116.00" routeLength="507.80" waitSteps="52" timeLoss="73.63" rerouteNo="0" devices="tripinfo_moped.74" vType="moped" vaporized=""/>
    <tripinfo id="moped.49" depart="75.00" departLane="beg_1" departPos="2.20" departSpeed="0.00" departDelay="26.00" arrival="227.00" arrivalLane="end_1" arrivalPos="10.00" arrivalSpeed="7.24" duration="152.00" routeLength="507.80" waitSteps="70" timeLoss="84.67" rerouteNo="0" devices="tripinfo_moped.49" vType="moped" vaporized=""/>
    <tripinfo id="moped.65" depart="98.00" departLane="beg_1" departPos="2.20" departSpeed="0.00" departDelay="33.00" arrival="227.00" arrivalLane="end_1" arrivalPos="10.00" arrivalSpeed="8.95" duration="129.00" routeLength="507.80" waitSteps="56" timeLoss="71.95" rerouteNo="0" devices="tripinfo_moped.65" vType="moped" vaporized=""/>
    <tripinfo id="moped.66" depart="99.00" departLane="beg_1" departPos="2.20" departSpeed="0.00" departDelay="33.00" arrival="227.00" arrivalLane="end_1" arrivalPos="10.00" arrivalSpeed="9.50" duration="128.00" routeLength="507.80" waitSteps="60" timeLoss="76.93" rerouteNo="0" devices="tripinfo_moped.66" vType="moped" vaporized=""/>
    <tripinfo id="moped.76" depart="115.00" departLane="beg_1" departPos="2.20" departSpeed="0.00" departDelay="39.00" arrival="228.00" arrivalLane="end_1" arrivalPos="10.00" arrivalSpeed="8.23" duration="113.00" routeLength="507.80" waitSteps="56" timeLoss="79.46" rerouteNo="0" devices="tripinfo_moped.76" vType="moped" vaporized=""/>
    <tripinfo id="moped.84" depart="129.00" departLane="beg_0" departPos="2.20" departSpeed="0.00" departDelay="45.00" arrival="228.00" arrivalLane="end_0" arrivalPos="10.00" arrivalSpeed="10.67" duration="99.00" routeLength="507.80" waitSteps="45" timeLoss="68.03" rerouteNo="0" devices="tripinfo_moped.84" vType="moped" vaporized=""/>
    <tripinfo id="moped.86" depart="133.00" departLane="beg_0" departPos="2.20" departSpeed="0.00" departDelay="47.00" arrival="229.00" arrivalLane="end_0" arrivalPos="10.00" arrivalSpeed="10.64" duration="96.00" routeLength="507.80" waitSteps="35" timeLoss="59.02" rerouteNo="0" devices="tripinfo_moped.86" vType="moped" vaporized=""/>
    <tripinfo id="moped.81" depart="123.00" departLane="beg_0" departPos="2.20" departSpeed="0.00" departDelay="42.00" arrival="229.00" arrivalLane="end_0" arrivalPos="10.00" arrivalSpeed="10.34" duration="106.00" routeLength="507.80" waitSteps="49" timeLoss="68.76" rerouteNo="0" devices="tripinfo_moped.81" vType="moped" vaporized=""/>
    <tripinfo id="moped.78" depart="119.00" departLane="beg_1" departPos="2.20" departSpeed="0.00" departDelay="41.00" arrival="229.00" arrivalLane="end_1" arrivalPos="10.00" arrivalSpeed="9.98" duration="110.00" routeLength="507.80" waitSteps="50" timeLoss="73.52" rerouteNo="0" devices="tripinfo_moped.78" vType="moped" vaporized=""/>
    <tripinfo id="moped.72" depart="110.00" departLane="beg_1" departPos="2.20" departSpeed="0.00" departDelay="38.00" arrival="229.00" arrivalLane="end_1" arrivalPos="10.00" arrivalSpeed="10.03" duration="119.00" routeLength="507.80" waitSteps="57" timeLoss="74.18" rerouteNo="0" devices="tripinfo_moped.72" vType="moped" vaporized=""/>
    <tripinfo id="moped.79" depart="122.00" departLane="beg_1" departPos="2.20" departSpeed="0.00" departDelay="43.00" arrival="230.00" arrivalLane="end_1" arrivalPos="10.00" arrivalSpeed="8.65" duration="108.00" routeLength="507.80" waitSteps="54" timeLoss="77.16" rerouteNo="0" devices="tripinfo_moped.79" vType="moped" vaporized=""/>
    <tripinfo id="moped.82" depart="125.00" departLane="beg_1" departPos="2.20" departSpeed="0.00" departDelay="43.00" arrival="230.00" arrivalLane="end_1" arrivalPos="10.00" arrivalSpeed="9.85" duration="105.00" routeLength="507.80" waitSteps="49" timeLoss="69.93" rerouteNo="0" devices="tripinfo_moped.82" vType="moped" vaporized=""/>
    <tripinfo id="moped.89" depart="138.00" departLane="beg_0" departPos="2.20" departSpeed="0.00" departDelay="49.00" arrival="230.00" arrivalLane="end_0" arrivalPos="10.00" arrivalSpeed="11.63" duration="92.00" routeLength="507.80" waitSteps="36" timeLoss="56.92" rerouteNo="0" devices="tripinfo_moped.89" vType="moped" vaporized=""/>