<?xml version="1.0" encoding="UTF-8"?>

<!-- generated on Tue Feb  2 12:37:42 2016 by SUMO Version dev-SVN-r19829
<?xml version="1.0" encoding="UTF-8"?>

<configuration xmlns:xsi="http://www.w3.org/2001/XMLSchema-instance" xsi:noNamespaceSchemaLocation="http://sumo.dlr.de/xsd/sumoConfiguration.xsd">

    <input>
        <net-file value="net.net.xml"/>
        <route-files value="input_routes.rou.xml"/>
    </input>

    <output>
        <tripinfo-output value="tripinfos.xml"/>
    </output>

    <processing>
        <lateral-resolution value="1.1"/>
    </processing>

    <report>
        <xml-validation value="never"/>
        <no-step-log value="true"/>
    </report>

</configuration>
-->

<tripinfos xmlns:xsi="http://www.w3.org/2001/XMLSchema-instance" xsi:noNamespaceSchemaLocation="http://sumo.dlr.de/xsd/tripinfo_file.xsd">
    <tripinfo id="moped.0" depart="0.00" departLane="beg_0" departPos="2.20" departSpeed="0.00" departDelay="0.00" arrival="204.00" arrivalLane="end_0" arrivalPos="10.00" arrivalSpeed="4.39" duration="204.00" routeLength="507.80" waitSteps="159" timeLoss="172.85" rerouteNo="0" devices="tripinfo_moped.0" vType="moped" vaporized=""/>
    <tripinfo id="moped.4" depart="4.00" departLane="beg_0" departPos="2.20" departSpeed="0.00" departDelay="0.00" arrival="204.00" arrivalLane="end_0" arrivalPos="10.00" arrivalSpeed="4.14" duration="200.00" routeLength="507.80" waitSteps="150" timeLoss="166.43" rerouteNo="0" devices="tripinfo_moped.4" vType="moped" vaporized=""/>
    <tripinfo id="moped.3" depart="4.00" departLane="beg_1" departPos="2.20" departSpeed="0.00" departDelay="1.00" arrival="204.00" arrivalLane="end_1" arrivalPos="10.00" arrivalSpeed="4.97" duration="200.00" routeLength="507.80" waitSteps="147" timeLoss="169.24" rerouteNo="0" devices="tripinfo_moped.3" vType="moped" vaporized=""/>
    <tripinfo id="moped.6" depart="7.00" departLane="beg_1" departPos="2.20" departSpeed="0.00" departDelay="1.00" arrival="204.00" arrivalLane="end_1" arrivalPos="10.00" arrivalSpeed="4.23" duration="197.00" routeLength="507.80" waitSteps="148" timeLoss="164.69" rerouteNo="0" devices="tripinfo_moped.6" vType="moped" vaporized=""/>
    <tripinfo id="moped.1" depart="1.00" departLane="beg_1" departPos="2.20" departSpeed="0.00" departDelay="0.00" arrival="204.00" arrivalLane="end_1" arrivalPos="10.00" arrivalSpeed="3.94" duration="203.00" routeLength="507.80" waitSteps="145" timeLoss="157.96" rerouteNo="0" devices="tripinfo_moped.1" vType="moped" vaporized=""/>
    <tripinfo id="moped.2" depart="2.00" departLane="beg_0" departPos="2.20" departSpeed="0.00" departDelay="0.00" arrival="205.00" arrivalLane="end_0" arrivalPos="10.00" arrivalSpeed="4.46" duration="203.00" routeLength="507.80" waitSteps="151" timeLoss="167.19" rerouteNo="0" devices="tripinfo_moped.2" vType="moped" vaporized=""/>
    <tripinfo id="moped.10" depart="12.00" departLane="beg_0" departPos="2.20" departSpeed="0.00" departDelay="2.00" arrival="206.00" arrivalLane="end_1" arrivalPos="10.00" arrivalSpeed="5.21" duration="194.00" routeLength="507.80" waitSteps="146" timeLoss="163.35" rerouteNo="0" devices="tripinfo_moped.10" vType="moped" vaporized=""/>
    <tripinfo id="moped.8" depart="8.00" departLane="beg_1" departPos="2.20" departSpeed="0.00" departDelay="0.00" arrival="206.00" arrivalLane="end_1" arrivalPos="10.00" arrivalSpeed="4.62" duration="198.00" routeLength="507.80" waitSteps="139" timeLoss="152.91" rerouteNo="0" devices="tripinfo_moped.8" vType="moped" vaporized=""/>
    <tripinfo id="moped.7" depart="8.00" departLane="beg_0" departPos="2.20" departSpeed="0.00" departDelay="1.00" arrival="206.00" arrivalLane="end_0" arrivalPos="10.00" arrivalSpeed="4.93" duration="198.00" routeLength="507.80" waitSteps="130" timeLoss="142.38" rerouteNo="0" devices="tripinfo_moped.7" vType="moped" vaporized=""/>
    <tripinfo id="moped.12" depart="15.00" departLane="beg_1" departPos="2.20" departSpeed="0.00" departDelay="3.00" arrival="207.00" arrivalLane="end_1" arrivalPos="10.00" arrivalSpeed="4.87" duration="192.00" routeLength="507.80" waitSteps="141" timeLoss="159.69" rerouteNo="0" devices="tripinfo_moped.12" vType="moped" vaporized=""/>
    <tripinfo id="moped.14" depart="18.00" departLane="beg_0" departPos="2.20" departSpeed="0.00" departDelay="4.00" arrival="207.00" arrivalLane="end_0" arrivalPos="10.00" arrivalSpeed="5.08" duration="189.00" routeLength="507.80" waitSteps="133" timeLoss="151.12" rerouteNo="0" devices="tripinfo_moped.14" vType="moped" vaporized=""/>
    <tripinfo id="moped.11" depart="12.00" departLane="beg_0" departPos="2.20" departSpeed="0.00" departDelay="1.00" arrival="207.00" arrivalLane="end_0" arrivalPos="10.00" arrivalSpeed="4.95" duration="195.00" routeLength="507.80" waitSteps="142" timeLoss="160.83" rerouteNo="0" devices="tripinfo_moped.11" vType="moped" vaporized=""/>
    <tripinfo id="moped.13" depart="15.00" departLane="beg_0" departPos="2.20" departSpeed="0.00" departDelay="2.00" arrival="208.00" arrivalLane="end_1" arrivalPos="10.00" arrivalSpeed="5.11" duration="193.00" routeLength="507.80" waitSteps="143" timeLoss="162.46" rerouteNo="0" devices="tripinfo_moped.13" vType="moped" vaporized=""/>
    <tripinfo id="moped.19" depart="26.00" departLane="beg_1" departPos="2.20" departSpeed="0.00" departDelay="7.00" arrival="208.00" arrivalLane="end_1" arrivalPos="10.00" arrivalSpeed="4.96" duration="182.00" routeLength="507.80" waitSteps="133" timeLoss="151.46" rerouteNo="0" devices="tripinfo_moped.19" vType="moped" vaporized=""/>
    <tripinfo id="moped.17" depart="22.00" departLane="beg_0" departPos="2.20" departSpeed="0.00" departDelay="5.00" arrival="209.00" arrivalLane="end_0" arrivalPos="10.00" arrivalSpeed="6.34" duration="187.00" routeLength="507.80" waitSteps="125" timeLoss="142.12" rerouteNo="0" devices="tripinfo_moped.17" vType="moped" vaporized=""/>
    <tripinfo id="moped.22" depart="32.00" departLane="beg_1" departPos="2.20" departSpeed="0.00" departDelay="10.00" arrival="209.00" arrivalLane="end_0" arrivalPos="10.00" arrivalSpeed="5.49" duration="177.00" routeLength="507.80" waitSteps="120" timeLoss="137.11" rerouteNo="0" devices="tripinfo_moped.22" vType="moped" vaporized=""/>
    <tripinfo id="moped.21" depart="31.00" departLane="beg_0" departPos="2.20" departSpeed="0.00" departDelay="10.00" arrival="209.00" arrivalLane="end_0" arrivalPos="10.00" arrivalSpeed="5.08" duration="178.00" routeLength="507.80" waitSteps="122" timeLoss="142.33" rerouteNo="0" devices="tripinfo_moped.21" vType="moped" vaporized=""/>
    <tripinfo id="moped.15" depart="19.00" departLane="beg_1" departPos="2.20" departSpeed="0.00" departDelay="4.00" arrival="209.00" arrivalLane="end_1" arrivalPos="10.00" arrivalSpeed="5.99" duration="190.00" routeLength="507.80" waitSteps="130" timeLoss="142.68" rerouteNo="0" devices="tripinfo_moped.15" vType="moped" vaporized=""/>
    <tripinfo id="moped.9" depart="11.00" departLane="beg_1" departPos="2.20" departSpeed="0.00" departDelay="2.00" arrival="210.00" arrivalLane="end_1" arrivalPos="10.00" arrivalSpeed="5.82" duration="199.00" routeLength="507.80" waitSteps="122" timeLoss="134.82" rerouteNo="0" devices="tripinfo_moped.9" vType="moped" vaporized=""/>
    <tripinfo id="moped.16" depart="22.00" departLane="beg_1" departPos="2.20" departSpeed="0.00" departDelay="6.00" arrival="211.00" arrivalLane="end_1" arrivalPos="10.00" arrivalSpeed="6.82" duration="189.00" routeLength="507.80" waitSteps="117" timeLoss="130.69" rerouteNo="0" devices="tripinfo_moped.16" vType="moped" vaporized=""/>
    <tripinfo id="moped.20" depart="27.00" departLane="beg_0" departPos="2.20" departSpeed="0.00" departDelay="7.00" arrival="211.00" arrivalLane="end_1" arrivalPos="10.00" arrivalSpeed="6.25" duration="184.00" routeLength="507.80" waitSteps="131" timeLoss="149.00" rerouteNo="0" devices="tripinfo_moped.20" vType="moped" vaporized=""/>
    <tripinfo id="moped.18" depart="26.00" departLane="beg_0" departPos="2.20" departSpeed="0.00" departDelay="8.00" arrival="211.00" arrivalLane="end_0" arrivalPos="10.00" arrivalSpeed="6.28" duration="185.00" routeLength="507.80" waitSteps="124" timeLoss="139.43" rerouteNo="0" devices="tripinfo_moped.18" vType="moped" vaporized=""/>
    <tripinfo id="moped.5" depart="6.00" departLane="beg_0" departPos="2.20" departSpeed="0.00" departDelay="1.00" arrival="211.00" arrivalLane="end_0" arrivalPos="10.00" arrivalSpeed="6.29" duration="205.00" routeLength="507.80" waitSteps="118" timeLoss="130.28" rerouteNo="0" devices="tripinfo_moped.5" vType="moped" vaporized=""/>
    <tripinfo id="moped.26" depart="37.00" departLane="beg_0" departPos="2.20" departSpeed="0.00" departDelay="11.00" arrival="211.00" arrivalLane="end_0" arrivalPos="10.00" arrivalSpeed="5.98" duration="174.00" routeLength="507.80" waitSteps="111" timeLoss="125.01" rerouteNo="0" devices="tripinfo_moped.26" vType="moped" vaporized=""/>
    <tripinfo id="moped.28" depart="41.00" departLane="beg_1" departPos="2.20" departSpeed="0.00" departDelay="13.00" arrival="212.00" arrivalLane="end_1" arrivalPos="10.00" arrivalSpeed="6.63" duration="171.00" routeLength="507.80" waitSteps="120" timeLoss="140.40" rerouteNo="0" devices="tripinfo_moped.28" vType="moped" vaporized=""/>
    <tripinfo id="moped.31" depart="45.00" departLane="beg_1" departPos="2.20" departSpeed="0.00" departDelay="14.00" arrival="212.00" arrivalLane="end_1" arrivalPos="10.00" arrivalSpeed="6.44" duration="167.00" routeLength="507.80" waitSteps="114" timeLoss="136.47" rerouteNo="0" devices="tripinfo_moped.31" vType="moped" vaporized=""/>
    <tripinfo id="moped.29" depart="41.00" departLane="beg_0" departPos="2.20" departSpeed="0.00" departDelay="12.00" arrival="213.00" arrivalLane="end_0" arrivalPos="10.00" arrivalSpeed="7.49" duration="172.00" routeLength="507.80" waitSteps="110" timeLoss="125.35" rerouteNo="0" devices="tripinfo_moped.29" vType="moped" vaporized=""/>
    <tripinfo id="moped.30" depart="44.00" departLane="beg_0" departPos="2.20" departSpeed="0.00" departDelay="14.00" arrival="213.00" arrivalLane="end_0" arrivalPos="10.00" arrivalSpeed="6.70" duration="169.00" routeLength="507.80" waitSteps="114" timeLoss="138.25" rerouteNo="0" devices="tripinfo_moped.30" vType="moped" vaporized=""/>
    <tripinfo id="moped.23" depart="33.00" departLane="beg_0" departPos="2.20" departSpeed="0.00" departDelay="10.00" arrival="213.00" arrivalLane="end_0" arrivalPos="10.00" arrivalSpeed="6.80" duration="180.00" routeLength="507.80" waitSteps="110" timeLoss="124.93" rerouteNo="0" devices="tripinfo_moped.23" vType="moped" vaporized=""/>
    <tripinfo id="moped.27" depart="39.00" departLane="beg_1" departPos="2.20" departSpeed="0.00" departDelay="12.00" arrival="213.00" arrivalLane="end_1" arrivalPos="10.00" arrivalSpeed="7.23" duration="174.00" routeLength="507.80" waitSteps="114" timeLoss="130.22" rerouteNo="0" devices="tripinfo_moped.27" vType="moped" vaporized=""/>
    <tripinfo id="moped.33" depart="48.00" departLane="beg_1" departPos="2.20" departSpeed="0.00" departDelay="15.00" arrival="214.00" arrivalLane="end_1" arrivalPos="10.00" arrivalSpeed="7.53" duration="166.00" routeLength="507.80" waitSteps="113" timeLoss="135.34" rerouteNo="0" devices="tripinfo_moped.33" vType="moped" vaporized=""/>
    <tripinfo id="moped.32" depart="46.00" departLane="beg_0" departPos="2.20" departSpeed="0.00" departDelay="14.00" arrival="214.00" arrivalLane="end_1" arrivalPos="10.00" arrivalSpeed="6.87" duration="168.00" routeLength="507.80" waitSteps="111" timeLoss="131.90" rerouteNo="0" devices="tripinfo_moped.32" vType="moped" vaporized=""/>
    <tripinfo id="moped.25" depart="36.00" departLane="beg_1" departPos="2.20" departSpeed="0.00" departDelay="11.00" arrival="215.00" arrivalLane="end_1" arrivalPos="10.00" arrivalSpeed="7.01" duration="179.00" routeLength="507.80" waitSteps="104" timeLoss="119.34" rerouteNo="0" devices="tripinfo_moped.25" vType="moped" vaporized=""/>
    <tripinfo id="moped.38" depart="59.00" departLane="beg_0" departPos="2.20" departSpeed="0.00" departDelay="21.00" arrival="215.00" arrivalLane="end_0" arrivalPos="10.00" arrivalSpeed="7.71" duration="156.00" routeLength="507.80" waitSteps="102" timeLoss="125.06" rerouteNo="0" devices="tripinfo_moped.38" vType="moped" vaporized=""/>
    <tripinfo id="moped.36" depart="54.00" departLane="beg_0" departPos="2.20" departSpeed="0.00" departDelay="18.00" arrival="215.00" arrivalLane="end_0" arrivalPos="10.00" arrivalSpeed="7.57" duration="161.00" routeLength="507.80" waitSteps="105" timeLoss="120.73" rerouteNo="0" devices="tripinfo_moped.36" vType="moped" vaporized=""/>
    <tripinfo id="moped.34" depart="50.00" departLane="beg_0" departPos="2.20" departSpeed="0.00" departDelay="16.00" arrival="215.00" arrivalLane="end_0" arrivalPos="10.00" arrivalSpeed="7.18" duration="165.00" routeLength="507.80" waitSteps="108" timeLoss="127.47" rerouteNo="0" devices="tripinfo_moped.34" vType="moped" vaporized=""/>
    <tripinfo id="moped.42" depart="63.00" departLane="beg_1" departPos="2.20" departSpeed="0.00" departDelay="21.00" arrival="216.00" arrivalLane="end_1" arrivalPos="10.00" arrivalSpeed="7.40" duration="153.00" routeLength="507.80" waitSteps="102" timeLoss="122.38" rerouteNo="0" devices="tripinfo_moped.42" vType="moped" vaporized=""/>
    <tripinfo id="moped.35" depart="53.00" departLane="beg_1" departPos="2.20" departSpeed="0.00" departDelay="18.00" arrival="216.00" arrivalLane="end_1" arrivalPos="10.00" arrivalSpeed="7.56" duration="163.00" routeLength="507.80" waitSteps="110" timeLoss="128.40" rerouteNo="0" devices="tripinfo_moped.35" vType="moped" vaporized=""/>
    <tripinfo id="moped.24" depart="34.00" departLane="beg_0" departPos="2.20" departSpeed="0.00" departDelay="10.00" arrival="217.00" arrivalLane="end_0" arrivalPos="10.00" arrivalSpeed="6.08" duration="183.00" routeLength="507.80" waitSteps="92" timeLoss="105.47" rerouteNo="0" devices="tripinfo_moped.24" vType="moped" vaporized=""/>
    <tripinfo id="moped.45" depart="68.00" departLane="beg_0" departPos="2.20" departSpeed="0.00" departDelay="23.00" arrival="217.00" arrivalLane="end_0" arrivalPos="10.00" arrivalSpeed="7.23" duration="149.00" routeLength="507.80" waitSteps="95" timeLoss="118.12" rerouteNo="0" devices="tripinfo_moped.45" vType="moped" vaporized=""/>
    <tripinfo id="moped.43" depart="65.00" departLane="beg_0" departPos="2.20" departSpeed="0.00" departDelay="22.00" arrival="217.00" arrivalLane="end_0" arrivalPos="10.00" arrivalSpeed="8.03" duration="152.00" routeLength="507.80" waitSteps="99" timeLoss="118.74" rerouteNo="0" devices="tripinfo_moped.43" vType="moped" vaporized=""/>
    <tripinfo id="moped.37" depart="57.00" departLane="beg_1" departPos="2.20" departSpeed="0.00" departDelay="20.00" arrival="217.00" arrivalLane="end_1" arrivalPos="10.00" arrivalSpeed="8.16" duration="160.00" routeLength="507.80" waitSteps="105" timeLoss="129.06" rerouteNo="0" devices="tripinfo_moped.37" vType="moped" vaporized=""/>
    <tripinfo id="moped.44" depart="68.00" departLane="beg_1" departPos="2.20" departSpeed="0.00" departDelay="24.00" arrival="218.00" arrivalLane="end_1" arrivalPos="10.00" arrivalSpeed="8.07" duration="150.00" routeLength="507.80" waitSteps="95" timeLoss="117.43" rerouteNo="0" devices="tripinfo_moped.44" vType="moped" vaporized=""/>
    <tripinfo id="moped.39" depart="61.00" departLane="beg_1" departPos="2.20" departSpeed="0.00" departDelay="22.00" arrival="218.00" arrivalLane="end_1" arrivalPos="10.00" arrivalSpeed="8.16" duration="157.00" routeLength="507.80" waitSteps="90" timeLoss="104.63" rerouteNo="0" devices="tripinfo_moped.39" vType="moped" vaporized=""/>
    <tripinfo id="moped.57" depart="87.00" departLane="beg_1" departPos="2.20" departSpeed="0.00" departDelay="30.00" arrival="218.00" arrivalLane="end_0" arrivalPos="10.00" arrivalSpeed="7.41" duration="131.00" routeLength="507.80" waitSteps="76" timeLoss="100.39" rerouteNo="0" devices="tripinfo_moped.57" vType="moped" vaporized=""/>
    <tripinfo id="moped.52" depart="79.00" departLane="beg_0" departPos="2.20" departSpeed="0.00" departDelay="27.00" arrival="218.00" arrivalLane="end_0" arrivalPos="10.00" arrivalSpeed="6.99" duration="139.00" routeLength="507.80" waitSteps="84" timeLoss="104.08" rerouteNo="0" devices="tripinfo_moped.52" vType="moped" vaporized=""/>
    <tripinfo id="moped.41" depart="63.00" departLane="beg_0" departPos="2.20" departSpeed="0.00" departDelay="22.00" arrival="218.00" arrivalLane="end_0" arrivalPos="10.00" arrivalSpeed="8.24" duration="155.00" routeLength="507.80" waitSteps="94" timeLoss="112.94" rerouteNo="0" devices="tripinfo_moped.41" vType="moped" vaporized=""/>
    <tripinfo id="moped.40" depart="61.00" departLane="beg_1" departPos="2.20" departSpeed="0.00" departDelay="21.00" arrival="219.00" arrivalLane="end_1" arrivalPos="10.00" arrivalSpeed="7.48" duration="158.00" routeLength="507.80" waitSteps="104" timeLoss="124.16" rerouteNo="0" devices="tripinfo_moped.40" vType="moped" vaporized=""/>
    <tripinfo id="moped.48" depart="72.00" departLane="beg_0" departPos="2.20" departSpeed="0.00" departDelay="24.00" arrival="220.00" arrivalLane="end_0" arrivalPos="10.00" arrivalSpeed="8.66" duration="148.00" routeLength="507.80" waitSteps="75" timeLoss="89.36" rerouteNo="0" devices="tripinfo_moped.48" vType="moped" vaporized=""/>
    <tripinfo id="moped.58" depart="87.00" departLane="beg_0" departPos="2.20" departSpeed="0.00" departDelay="29.00" arrival="220.00" arrivalLane="end_0" arrivalPos="10.00" arrivalSpeed="8.91" duration="133.00" routeLength="507.80" waitSteps="78" timeLoss="98.45" rerouteNo="0" devices="tripinfo_moped.58" vType="moped" vaporized=""/>
    <tripinfo id="moped.46" depart="69.00" departLane="beg_1" departPos="2.20" departSpeed="0.00" departDelay="23.00" arrival="220.00" arrivalLane="end_1" arrivalPos="10.00" arrivalSpeed="8.46" duration="151.00" routeLength="507.80" waitSteps="93" timeLoss="113.68" rerouteNo="0" devices="tripinfo_moped.46" vType="moped" vaporized=""/>
    <tripinfo id="moped.51" depart="78.00" departLane="beg_1" departPos="2.20" departSpeed="0.00" departDelay="27.00" arrival="220.00" arrivalLane="end_1" arrivalPos="10.00" arrivalSpeed="8.58" duration="142.00" routeLength="507.80" waitSteps="89" timeLoss="111.19" rerouteNo="0" devices="tripinfo_moped.51" vType="moped" vaporized=""/>
    <tripinfo id="moped.53" depart="79.00" departLane="beg_1" departPos="2.20" departSpeed="0.00" departDelay="26.00" arrival="220.00" arrivalLane="end_1" arrivalPos="10.00" arrivalSpeed="7.73" duration="141.00" routeLength="507.80" waitSteps="87" timeLoss="111.03" rerouteNo="0" devices="tripinfo_moped.53" vType="moped" vaporized=""/>
    <tripinfo id="moped.54" depart="83.00" departLane="beg_1" departPos="2.20" departSpeed="0.00" departDelay="29.00" arrival="221.00" arrivalLane="end_1" arrivalPos="10.00" arrivalSpeed="8.97" duration="138.00" routeLength="507.80" waitSteps="80" timeLoss="101.72" rerouteNo="0" devices="tripinfo_moped.54" vType="moped" vaporized=""/>
    <tripinfo id="moped.56" depart="83.00" departLane="beg_0" departPos="2.20" departSpeed="0.00" departDelay="27.00" arrival="221.00" arrivalLane="end_0" arrivalPos="10.00" arrivalSpeed="9.44" duration="138.00" routeLength="507.80" waitSteps="66" timeLoss="84.53" rerouteNo="0" devices="tripinfo_moped.56" vType="moped" vaporized=""/>
    <tripinfo id="moped.68" depart="103.00" departLane="beg_0" departPos="2.20" departSpeed="0.00" departDelay="35.00" arrival="221.00" arrivalLane="end_0" arrivalPos="10.00" arrivalSpeed="8.88" duration="118.00" routeLength="507.80" waitSteps="62" timeLoss="85.31" rerouteNo="0" devices="tripinfo_moped.68" vType="moped" vaporized=""/>
    <tripinfo id="moped.55" depart="83.00" departLane="beg_0" departPos="2.20" departSpeed="0.00" departDelay="28.00" arrival="222.00" arrivalLane="end_1" arrivalPos="10.00" arrivalSpeed="8.64" duration="139.00" routeLength="507.80" waitSteps="83" timeLoss="101.68" rerouteNo="0" devices="tripinfo_moped.55" vType="moped" vaporized=""/>
    <tripinfo id="moped.47" depart="72.00" departLane="beg_1" departPos="2.20" departSpeed="0.00" departDelay="25.00" arrival="222.00" arrivalLane="end_1" arrivalPos="10.00" arrivalSpeed="8.69" duration="150.00" routeLength="507.80" waitSteps="81" timeLoss="97.44" rerouteNo="0" devices="tripinfo_moped.47" vType="moped" vaporized=""/>
    <tripinfo id="moped.50" depart="76.00" departLane="beg_0" departPos="2.20" departSpeed="0.00" departDelay="26.00" arrival="222.00" arrivalLane="end_0" arrivalPos="10.00" arrivalSpeed="7.81" duration="146.00" routeLength="507.80" waitSteps="65" timeLoss="80.38" rerouteNo="0" devices="tripinfo_moped.50" vType="moped" vaporized=""/>
    <tripinfo id="moped.69" depart="105.00" departLane="beg_0" departPos="2.20" departSpeed="0.00" departDelay="36.00" arrival="222.00" arrivalLane="end_0" arrivalPos="10.00" arrivalSpeed="8.63" duration="117.00" routeLength="507.80" waitSteps="63" timeLoss="82.63" rerouteNo="0" devices="tripinfo_moped.69" vType="moped" vaporized=""/>
    <tripinfo id="moped.64" depart="96.00" departLane="beg_0" departPos="2.20" departSpeed="0.00" departDelay="32.00" arrival="223.00" arrivalLane="end_0" arrivalPos="10.00" arrivalSpeed="9.52" duration="127.00" routeLength="507.80" waitSteps="65" timeLoss="81.95" rerouteNo="0" devices="tripinfo_moped.64" vType="moped" vaporized=""/>
    <tripinfo id="moped.61" depart="94.00" departLane="beg_0" departPos="2.20" departSpeed="0.00" departDelay="33.00" arrival="224.00" arrivalLane="end_1" arrivalPos="10.00" arrivalSpeed="9.85" duration="130.00" routeLength="507.80" waitSteps="77" timeLoss="98.99" rerouteNo="0" devices="tripinfo_moped.61" vType="moped" vaporized=""/>
    <tripinfo id="moped.60" depart="91.00" departLane="beg_1" departPos="2.20" departSpeed="0.00" departDelay="31.00" arrival="224.00" arrivalLane="end_1" arrivalPos="10.00" arrivalSpeed="9.36" duration="133.00" routeLength="507.80" waitSteps="81" timeLoss="102.05" rerouteNo="0" devices="tripinfo_moped.60" vType="moped" vaporized=""/>
    <tripinfo id="moped.59" depart="90.00" departLane="beg_0" departPos="2.20" departSpeed="0.00" departDelay="31.00" arrival="224.00" arrivalLane="end_1" arrivalPos="10.00" arrivalSpeed="9.40" duration="134.00" routeLength="507.80" waitSteps="72" timeLoss="93.15" rerouteNo="0" devices="tripinfo_moped.59" vType="moped" vaporized=""/>
    <tripinfo id="moped.70" depart="106.00" departLane="beg_1" departPos="2.20" departSpeed="0.00" departDelay="36.00" arrival="224.00" arrivalLane="end_0" arrivalPos="10.00" arrivalSpeed="9.69" duration="118.00" routeLength="507.80" waitSteps="60" timeLoss="83.22" rerouteNo="0" devices="tripinfo_moped.70" vType="moped" vaporized=""/>
    <tripinfo id="moped.73" depart="113.00" departLane="beg_0" departPos="2.20" departSpeed="0.00" departDelay="40.00" arrival="224.00" arrivalLane="end_0" arrivalPos="10.00" arrivalSpeed="8.57" duration="111.00" routeLength="507.80" waitSteps="58" timeLoss="79.52" rerouteNo="0" devices="tripinfo_moped.73" vType="moped" vaporized=""/>
    <tripinfo id="moped.67" depart="103.00" departLane="beg_1" departPos="2.20" departSpeed="0.00" departDelay="36.00" arrival="225.00" arrivalLane="end_0" arrivalPos="10.00" arrivalSpeed="10.14" duration="122.00" routeLength="507.80" waitSteps="57" timeLoss="72.41" rerouteNo="0" devices="tripinfo_moped.67" vType="moped" vaporized=""/>
    <tripinfo id="moped.62" depart="94.00" departLane="beg_1" departPos="2.20" departSpeed="0.00" departDelay="32.00" arrival="225.00" arrivalLane="end_1" arrivalPos="10.00" arrivalSpeed="9.53" duration="131.00" routeLength="507.80" waitSteps="77" timeLoss="95.87" rerouteNo="0" devices="tripinfo_moped.62" vType="moped" vaporized=""/>
    <tripinfo id="moped.63" depart="95.00" departLane="beg_1" departPos="2.20" departSpeed="0.00" departDelay="32.00" arrival="225.00" arrivalLane="end_1" arrivalPos="10.00" arrivalSpeed="9.43" duration="130.00" routeLength="507.80" waitSteps="72" timeLoss="91.73" rerouteNo="0" devices="tripinfo_moped.63" vType="moped" vaporized=""/>
    <tripinfo id="moped.71" depart="108.00" departLane="beg_0" departPos="2.20" departSpeed="0.00" departDelay="37.00" arrival="226.00" arrivalLane="end_0" arrivalPos="10.00" arrivalSpeed="10.57" duration="118.00" routeLength="507.80" waitSteps="58" timeLoss="77.56" rerouteNo="0" devices="tripinfo_moped.71" vType="moped" vaporized=""/>
    <tripinfo id="moped.74" depart="113.00" departLane="beg_0" departPos="2.20" departSpeed="0.00" departDelay="39.00" arrival="226.00" arrivalLane="end_0" arrivalPos="10.00" arrivalSpeed="9.59" duration="113.00" routeLength="507.80" waitSteps="49" timeLoss="70.17" rerouteNo="0" devices="tripinfo_moped.74" vType="moped" vaporized=""/>
    <tripinfo id="moped.49" depart="75.00" departLane="beg_1" departPos="2.20" departSpeed="0.00" departDelay="26.00" arrival="226.00" arrivalLane="end_1" arrivalPos="10.00" arrivalSpeed="7.31" duration="151.00" routeLength="507.80" waitSteps="68" timeLoss="84.00" rerouteNo="0" devices="tripinfo_moped.49" vType="moped" vaporized=""/>
    <tripinfo id="moped.66" depart="99.00" departLane="beg_1" departPos="2.20" departSpeed="0.00" departDelay="33.00" arrival="227.00" arrivalLane="end_1" arrivalPos="10.00" arrivalSpeed="9.48" duration="128.00" routeLength="507.80" waitSteps="62" timeLoss="76.57" rerouteNo="0" devices="tripinfo_moped.66" vType="moped" vaporized=""/>
    <tripinfo id="moped.65" depart="98.00" departLane="beg_1" departPos="2.20" departSpeed="0.00" departDelay="33.00" arrival="227.00" arrivalLane="end_1" arrivalPos="10.00" arrivalSpeed="8.73" duration="129.00" routeLength="507.80" waitSteps="59" timeLoss="71.98" rerouteNo="0" devices="tripinfo_moped.65" vType="moped" vaporized=""/>
    <tripinfo id="moped.77" depart="118.00" departLane="beg_0" departPos="2.20" departSpeed="0.00" departDelay="41.00" arrival="227.00" arrivalLane="end_0" arrivalPos="10.00" arrivalSpeed="10.10" duration="109.00" routeLength="507.80" waitSteps="50" timeLoss="69.89" rerouteNo="0" devices="tripinfo_moped.77" vType="moped" vaporized=""/>
    <tripinfo id="moped.81" depart="126.00" departLane="beg_0" departPos="2.20" departSpeed="0.00" departDelay="45.00" arrival="227.00" arrivalLane="end_0" arrivalPos="10.00" arrivalSpeed="9.24" duration="101.00" routeLength="507.80" waitSteps="44" timeLoss="64.15" rerouteNo="0" devices="tripinfo_moped.81" vType="moped" vaporized=""/>
    <tripinfo id="moped.75" depart="116.00" departLane="beg_0" departPos="2.20" departSpeed="0.00" departDelay="41.00" arrival="228.00" arrivalLane="end_0" arrivalPos="10.00" arrivalSpeed="10.45" duration="112.00" routeLength="507.80" waitSteps="52" timeLoss="73.03" rerouteNo="0" devices="tripinfo_moped.75" vType="moped" vaporized=""/>
    <tripinfo id="moped.76" depart="116.00" departLane="beg_1" departPos="2.20" departSpeed="0.00" departDelay="40.00" arrival="228.00" arrivalLane="end_1" arrivalPos="10.00" arrivalSpeed="8.64" duration="112.00" routeLength="507.80" waitSteps="55" timeLoss="78.08" rerouteNo="0" devices="tripinfo_moped.76" vType="moped" vaporized=""/>
    <tripinfo id="moped.78" depart="120.00" departLane="beg_1" departPos="2.20" departSpeed="0.00" departDelay="42.00" arrival="228.00" arrivalLane="end_1" arrivalPos="10.00" arrivalSpeed="10.82" duration="108.00" routeLength="507.80" waitSteps="53" timeLoss="72.13" rerouteNo="0" devices="tripinfo_moped.78" vType="moped" vaporized=""/>
    <tripinfo id="moped.72" depart="111.00" departLane="beg_1" departPos="2.20" departSpeed="0.00" departDelay="39.00" arrival="229.00" arrivalLane="end_1" arrivalPos="10.00" arrivalSpeed="9.75" duration="118.00" routeLength="507.80" waitSteps="56" timeLoss="72.62" rerouteNo="0" devices="tripinfo_moped.72" vType="moped" vaporized=""/>
    <tripinfo id="moped.80" depart="123.00" departLane="beg_1" departPos="2.20" departSpeed="0.00" departDelay="43.00" arrival="229.00" arrivalLane="end_1" arrivalPos="10.00" arrivalSpeed="9.05" duration="106.00" routeLength="507.80" waitSteps="48" timeLoss="72.58" rerouteNo="0" devices="tripinfo_moped.80" vType="moped" vaporized=""/>
    <tripinfo id="moped.85" depart="134.00" departLane="beg_0" departPos="2.20" departSpeed="0.00" departDelay="49.00" arrival="229.00" arrivalLane="end_0" arrivalPos="10.00" arrivalSpeed="11.10" duration="95.00" routeLength="507.80" waitSteps="36" timeLoss="54.73" rerouteNo="0" devices="tripinfo_moped.85" vType="moped" vaporized=""/>
    <tripinfo id="moped.87" depart="136.00" departLane="beg_0" departPos="2.20" departSpeed="0.00" departDelay="49.00" arrival="229.00" arrivalLane="end_0" arrivalPos="10.00" arrivalSpeed="10.12" duration="93.00" routeLength="507.80" waitSteps="40" timeLoss="60.17" rerouteNo="0" devices="tripinfo_moped.87" vType="moped" vaporized=""/>
    <tripinfo id="moped.79" depart="122.00" departLane="beg_0" departPos="2.20" departSpeed="0.00" departDelay="43.00" arrival="230.00" arrivalLane="end_0" arrivalPos="10.00" arrivalSpeed="10.52" duration="108.00" routeLength="507.80" waitSteps="53" timeLoss="76.87" rerouteNo="0" devices="tripinfo_moped.79" vType="moped" vaporized=""/>
    <tripinfo id="moped.86" depart="135.00" departLane="beg_0" departPos="2.20" departSpeed="0.00" departDelay="49.00" arrival="230.00" arrivalLane="end_1" arrivalPos="10.00" arrivalSpeed="9.71" duration="95.00" routeLength="507.80" waitSteps="37" timeLoss="58.33" rerouteNo="0" devices="tripinfo_moped.86" vType="moped" vaporized=""/>
    <tripinfo id="moped.84" depart="134.00" departLane="beg_1" departPos="2.20" departSpeed="0.00" departDelay="50.00" arrival="230.00" arrivalLane="end_1" arrivalPos="10.00" arrivalSpeed="10.76" duration="96.00" routeLength="507.80" waitSteps="44" timeLoss="65.46" rerouteNo="0" devices="tripinfo_moped.84" vType="moped" vaporized=""/>