<?xml version="1.0" encoding="UTF-8"?>

<!-- generated on Wed Nov  4 10:18:07 2015 by SUMO Version dev-SVN-r19249
<?xml version="1.0" encoding="UTF-8"?>

<configuration xmlns:xsi="http://www.w3.org/2001/XMLSchema-instance" xsi:noNamespaceSchemaLocation="http://sumo.dlr.de/xsd/sumoConfiguration.xsd">

    <input>
        <net-file value="net.net.xml"/>
        <route-files value="input_routes.rou.xml"/>
    </input>

    <output>
        <tripinfo-output value="tripinfos.xml"/>
    </output>

    <processing>
        <lateral-resolution value="1.1"/>
    </processing>

    <report>
        <xml-validation value="never"/>
        <no-step-log value="true"/>
    </report>

</configuration>
-->

<tripinfos xmlns:xsi="http://www.w3.org/2001/XMLSchema-instance" xsi:noNamespaceSchemaLocation="http://sumo.dlr.de/xsd/tripinfo_file.xsd">
    <tripinfo id="moped.2" depart="2.00" departLane="beg_0" departPos="2.20" departSpeed="0.00" departDelay="0.00" arrival="204.00" arrivalLane="end_0" arrivalPos="10.00" arrivalSpeed="4.22" duration="202.00" routeLength="507.80" waitSteps="151" timeLoss="166.38" rerouteNo="0" devices="tripinfo_moped.2" vType="moped" vaporized=""/>
    <tripinfo id="moped.0" depart="0.00" departLane="beg_0" departPos="2.20" departSpeed="0.00" departDelay="0.00" arrival="204.00" arrivalLane="end_0" arrivalPos="10.00" arrivalSpeed="3.86" duration="204.00" routeLength="507.80" waitSteps="158" timeLoss="172.94" rerouteNo="0" devices="tripinfo_moped.0" vType="moped" vaporized=""/>
    <tripinfo id="moped.6" depart="7.00" departLane="beg_1" departPos="2.20" departSpeed="0.00" departDelay="1.00" arrival="204.00" arrivalLane="end_1" arrivalPos="10.00" arrivalSpeed="4.48" duration="197.00" routeLength="507.80" waitSteps="146" timeLoss="164.66" rerouteNo="0" devices="tripinfo_moped.6" vType="moped" vaporized=""/>
    <tripinfo id="moped.3" depart="4.00" departLane="beg_1" departPos="2.20" departSpeed="0.00" departDelay="1.00" arrival="204.00" arrivalLane="end_1" arrivalPos="10.00" arrivalSpeed="4.27" duration="200.00" routeLength="507.80" waitSteps="153" timeLoss="169.42" rerouteNo="0" devices="tripinfo_moped.3" vType="moped" vaporized=""/>
    <tripinfo id="moped.12" depart="14.00" departLane="beg_1" departPos="2.20" departSpeed="0.00" departDelay="2.00" arrival="204.00" arrivalLane="end_1" arrivalPos="10.00" arrivalSpeed="3.99" duration="190.00" routeLength="507.80" waitSteps="143" timeLoss="157.86" rerouteNo="0" devices="tripinfo_moped.12" vType="moped" vaporized=""/>
    <tripinfo id="moped.4" depart="4.00" departLane="beg_0" departPos="2.20" departSpeed="0.00" departDelay="0.00" arrival="205.00" arrivalLane="end_0" arrivalPos="10.00" arrivalSpeed="4.31" duration="201.00" routeLength="507.80" waitSteps="150" timeLoss="167.19" rerouteNo="0" devices="tripinfo_moped.4" vType="moped" vaporized=""/>
    <tripinfo id="moped.10" depart="12.00" departLane="beg_1" departPos="2.20" departSpeed="0.00" departDelay="2.00" arrival="206.00" arrivalLane="end_1" arrivalPos="10.00" arrivalSpeed="4.87" duration="194.00" routeLength="507.80" waitSteps="143" timeLoss="163.48" rerouteNo="0" devices="tripinfo_moped.10" vType="moped" vaporized=""/>
    <tripinfo id="moped.7" depart="8.00" departLane="beg_0" departPos="2.20" departSpeed="0.00" departDelay="1.00" arrival="206.00" arrivalLane="end_0" arrivalPos="10.00" arrivalSpeed="4.82" duration="198.00" routeLength="507.80" waitSteps="131" timeLoss="142.29" rerouteNo="0" devices="tripinfo_moped.7" vType="moped" vaporized=""/>
    <tripinfo id="moped.8" depart="9.00" departLane="beg_0" departPos="2.20" departSpeed="0.00" departDelay="1.00" arrival="206.00" arrivalLane="end_0" arrivalPos="10.00" arrivalSpeed="5.01" duration="197.00" routeLength="507.80" waitSteps="135" timeLoss="152.01" rerouteNo="0" devices="tripinfo_moped.8" vType="moped" vaporized=""/>
    <tripinfo id="moped.20" depart="26.00" departLane="beg_1" departPos="2.20" departSpeed="0.00" departDelay="6.00" arrival="207.00" arrivalLane="end_1" arrivalPos="10.00" arrivalSpeed="5.18" duration="181.00" routeLength="507.80" waitSteps="130" timeLoss="145.98" rerouteNo="0" devices="tripinfo_moped.20" vType="moped" vaporized=""/>
    <tripinfo id="moped.14" depart="17.00" departLane="beg_1" departPos="2.20" departSpeed="0.00" departDelay="3.00" arrival="207.00" arrivalLane="end_1" arrivalPos="10.00" arrivalSpeed="4.53" duration="190.00" routeLength="507.80" waitSteps="137" timeLoss="152.32" rerouteNo="0" devices="tripinfo_moped.14" vType="moped" vaporized=""/>
    <tripinfo id="moped.1" depart="1.00" departLane="beg_1" departPos="2.20" departSpeed="0.00" departDelay="0.00" arrival="207.00" arrivalLane="end_0" arrivalPos="10.00" arrivalSpeed="4.94" duration="206.00" routeLength="507.80" waitSteps="147" timeLoss="160.83" rerouteNo="0" devices="tripinfo_moped.1" vType="moped" vaporized=""/>
    <tripinfo id="moped.17" depart="23.00" departLane="beg_0" departPos="2.20" departSpeed="0.00" departDelay="6.00" arrival="209.00" arrivalLane="end_0" arrivalPos="10.00" arrivalSpeed="6.13" duration="186.00" routeLength="507.80" waitSteps="125" timeLoss="141.12" rerouteNo="0" devices="tripinfo_moped.17" vType="moped" vaporized=""/>
    <tripinfo id="moped.11" depart="12.00" departLane="beg_0" departPos="2.20" departSpeed="0.00" departDelay="1.00" arrival="209.00" arrivalLane="end_0" arrivalPos="10.00" arrivalSpeed="6.52" duration="197.00" routeLength="507.80" waitSteps="132" timeLoss="162.69" rerouteNo="0" devices="tripinfo_moped.11" vType="moped" vaporized=""/>
    <tripinfo id="moped.13" depart="16.00" departLane="beg_0" departPos="2.20" departSpeed="0.00" departDelay="3.00" arrival="209.00" arrivalLane="end_0" arrivalPos="10.00" arrivalSpeed="5.78" duration="193.00" routeLength="507.80" waitSteps="137" timeLoss="162.29" rerouteNo="0" devices="tripinfo_moped.13" vType="moped" vaporized=""/>
    <tripinfo id="moped.22" depart="31.00" departLane="beg_1" departPos="2.20" departSpeed="0.00" departDelay="9.00" arrival="209.00" arrivalLane="end_1" arrivalPos="10.00" arrivalSpeed="6.24" duration="178.00" routeLength="507.80" waitSteps="122" timeLoss="138.00" rerouteNo="0" devices="tripinfo_moped.22" vType="moped" vaporized=""/>
    <tripinfo id="moped.21" depart="29.00" departLane="beg_1" departPos="2.20" departSpeed="0.00" departDelay="8.00" arrival="209.00" arrivalLane="end_1" arrivalPos="10.00" arrivalSpeed="5.75" duration="180.00" routeLength="507.80" waitSteps="128" timeLoss="144.21" rerouteNo="0" devices="tripinfo_moped.21" vType="moped" vaporized=""/>
    <tripinfo id="moped.9" depart="9.00" departLane="beg_1" departPos="2.20" departSpeed="0.00" departDelay="0.00" arrival="209.00" arrivalLane="end_1" arrivalPos="10.00" arrivalSpeed="5.21" duration="200.00" routeLength="507.80" waitSteps="119" timeLoss="135.77" rerouteNo="0" devices="tripinfo_moped.9" vType="moped" vaporized=""/>
    <tripinfo id="moped.28" depart="44.00" departLane="beg_1" departPos="2.20" departSpeed="0.00" departDelay="16.00" arrival="210.00" arrivalLane="end_1" arrivalPos="10.00" arrivalSpeed="5.98" duration="166.00" routeLength="507.80" waitSteps="117" timeLoss="135.46" rerouteNo="0" devices="tripinfo_moped.28" vType="moped" vaporized=""/>
    <tripinfo id="moped.18" depart="26.00" departLane="beg_0" departPos="2.20" departSpeed="0.00" departDelay="8.00" arrival="210.00" arrivalLane="end_0" arrivalPos="10.00" arrivalSpeed="6.10" duration="184.00" routeLength="507.80" waitSteps="124" timeLoss="138.69" rerouteNo="0" devices="tripinfo_moped.18" vType="moped" vaporized=""/>
    <tripinfo id="moped.16" depart="23.00" departLane="beg_0" departPos="2.20" departSpeed="0.00" departDelay="7.00" arrival="211.00" arrivalLane="end_1" arrivalPos="10.00" arrivalSpeed="6.50" duration="188.00" routeLength="507.80" waitSteps="112" timeLoss="129.89" rerouteNo="0" devices="tripinfo_moped.16" vType="moped" vaporized=""/>
    <tripinfo id="moped.30" depart="47.00" departLane="beg_0" departPos="2.20" departSpeed="0.00" departDelay="17.00" arrival="211.00" arrivalLane="end_1" arrivalPos="10.00" arrivalSpeed="6.16" duration="164.00" routeLength="507.80" waitSteps="110" timeLoss="133.35" rerouteNo="0" devices="tripinfo_moped.30" vType="moped" vaporized=""/>
    <tripinfo id="moped.19" depart="26.00" departLane="beg_0" departPos="2.20" departSpeed="0.00" departDelay="7.00" arrival="211.00" arrivalLane="end_0" arrivalPos="10.00" arrivalSpeed="5.96" duration="185.00" routeLength="507.80" waitSteps="135" timeLoss="154.28" rerouteNo="0" devices="tripinfo_moped.19" vType="moped" vaporized=""/>
    <tripinfo id="moped.5" depart="6.00" departLane="beg_0" departPos="2.20" departSpeed="0.00" departDelay="1.00" arrival="211.00" arrivalLane="end_0" arrivalPos="10.00" arrivalSpeed="5.82" duration="205.00" routeLength="507.80" waitSteps="118" timeLoss="130.44" rerouteNo="0" devices="tripinfo_moped.5" vType="moped" vaporized=""/>
    <tripinfo id="moped.31" depart="47.00" departLane="beg_1" departPos="2.20" departSpeed="0.00" departDelay="16.00" arrival="212.00" arrivalLane="end_1" arrivalPos="10.00" arrivalSpeed="6.52" duration="165.00" routeLength="507.80" waitSteps="113" timeLoss="135.10" rerouteNo="0" devices="tripinfo_moped.31" vType="moped" vaporized=""/>
    <tripinfo id="moped.15" depart="21.00" departLane="beg_1" departPos="2.20" departSpeed="0.00" departDelay="6.00" arrival="213.00" arrivalLane="end_0" arrivalPos="10.00" arrivalSpeed="7.01" duration="192.00" routeLength="507.80" waitSteps="127" timeLoss="144.61" rerouteNo="0" devices="tripinfo_moped.15" vType="moped" vaporized=""/>
    <tripinfo id="moped.26" depart="39.00" departLane="beg_0" departPos="2.20" departSpeed="0.00" departDelay="13.00" arrival="213.00" arrivalLane="end_0" arrivalPos="10.00" arrivalSpeed="6.58" duration="174.00" routeLength="507.80" waitSteps="104" timeLoss="124.91" rerouteNo="0" devices="tripinfo_moped.26" vType="moped" vaporized=""/>
    <tripinfo id="moped.23" depart="33.00" departLane="beg_0" departPos="2.20" departSpeed="0.00" departDelay="10.00" arrival="213.00" arrivalLane="end_0" arrivalPos="10.00" arrivalSpeed="6.91" duration="180.00" routeLength="507.80" waitSteps="110" timeLoss="124.82" rerouteNo="0" devices="tripinfo_moped.23" vType="moped" vaporized=""/>
    <tripinfo id="moped.27" depart="41.00" departLane="beg_1" departPos="2.20" departSpeed="0.00" departDelay="14.00" arrival="213.00" arrivalLane="end_1" arrivalPos="10.00" arrivalSpeed="7.71" duration="172.00" routeLength="507.80" waitSteps="111" timeLoss="128.14" rerouteNo="0" devices="tripinfo_moped.27" vType="moped" vaporized=""/>
    <tripinfo id="moped.29" depart="44.00" departLane="beg_0" departPos="2.20" departSpeed="0.00" departDelay="15.00" arrival="213.00" arrivalLane="end_1" arrivalPos="10.00" arrivalSpeed="6.58" duration="169.00" routeLength="507.80" waitSteps="107" timeLoss="122.62" rerouteNo="0" devices="tripinfo_moped.29" vType="moped" vaporized=""/>
    <tripinfo id="moped.32" depart="48.00" departLane="beg_0" departPos="2.20" departSpeed="0.00" departDelay="16.00" arrival="214.00" arrivalLane="end_1" arrivalPos="10.00" arrivalSpeed="7.29" duration="166.00" routeLength="507.80" waitSteps="109" timeLoss="129.95" rerouteNo="0" devices="tripinfo_moped.32" vType="moped" vaporized=""/>
    <tripinfo id="moped.35" depart="52.00" departLane="beg_0" departPos="2.20" departSpeed="0.00" departDelay="17.00" arrival="214.00" arrivalLane="end_0" arrivalPos="10.00" arrivalSpeed="7.09" duration="162.00" routeLength="507.80" waitSteps="111" timeLoss="127.39" rerouteNo="0" devices="tripinfo_moped.35" vType="moped" vaporized=""/>
    <tripinfo id="moped.33" depart="51.00" departLane="beg_1" departPos="2.20" departSpeed="0.00" departDelay="18.00" arrival="215.00" arrivalLane="end_1" arrivalPos="10.00" arrivalSpeed="7.64" duration="164.00" routeLength="507.80" waitSteps="112" timeLoss="133.08" rerouteNo="0" devices="tripinfo_moped.33" vType="moped" vaporized=""/>
    <tripinfo id="moped.37" depart="58.00" departLane="beg_0" departPos="2.20" departSpeed="0.00" departDelay="21.00" arrival="215.00" arrivalLane="end_1" arrivalPos="10.00" arrivalSpeed="6.57" duration="157.00" routeLength="507.80" waitSteps="101" timeLoss="126.23" rerouteNo="0" devices="tripinfo_moped.37" vType="moped" vaporized=""/>
    <tripinfo id="moped.34" depart="51.00" departLane="beg_0" departPos="2.20" departSpeed="0.00" departDelay="17.00" arrival="215.00" arrivalLane="end_0" arrivalPos="10.00" arrivalSpeed="7.90" duration="164.00" routeLength="507.80" waitSteps="98" timeLoss="126.27" rerouteNo="0" devices="tripinfo_moped.34" vType="moped" vaporized=""/>
    <tripinfo id="moped.25" depart="36.00" departLane="beg_1" departPos="2.20" departSpeed="0.00" departDelay="11.00" arrival="215.00" arrivalLane="end_0" arrivalPos="10.00" arrivalSpeed="6.84" duration="179.00" routeLength="507.80" waitSteps="107" timeLoss="119.31" rerouteNo="0" devices="tripinfo_moped.25" vType="moped" vaporized=""/>
    <tripinfo id="moped.24" depart="35.00" departLane="beg_0" departPos="2.20" departSpeed="0.00" departDelay="11.00" arrival="216.00" arrivalLane="end_0" arrivalPos="10.00" arrivalSpeed="6.51" duration="181.00" routeLength="507.80" waitSteps="91" timeLoss="104.25" rerouteNo="0" devices="tripinfo_moped.24" vType="moped" vaporized=""/>
    <tripinfo id="moped.36" depart="54.00" departLane="beg_1" departPos="2.20" departSpeed="0.00" departDelay="18.00" arrival="216.00" arrivalLane="end_1" arrivalPos="10.00" arrivalSpeed="7.42" duration="162.00" routeLength="507.80" waitSteps="104" timeLoss="122.09" rerouteNo="0" devices="tripinfo_moped.36" vType="moped" vaporized=""/>
    <tripinfo id="moped.40" depart="61.00" departLane="beg_1" departPos="2.20" departSpeed="0.00" departDelay="21.00" arrival="216.00" arrivalLane="end_1" arrivalPos="10.00" arrivalSpeed="7.71" duration="155.00" routeLength="507.80" waitSteps="103" timeLoss="121.33" rerouteNo="0" devices="tripinfo_moped.40" vType="moped" vaporized=""/>
    <tripinfo id="moped.45" depart="67.00" departLane="beg_0" departPos="2.20" departSpeed="0.00" departDelay="22.00" arrival="217.00" arrivalLane="end_0" arrivalPos="10.00" arrivalSpeed="8.21" duration="150.00" routeLength="507.80" waitSteps="96" timeLoss="119.08" rerouteNo="0" devices="tripinfo_moped.45" vType="moped" vaporized=""/>
    <tripinfo id="moped.39" depart="58.00" departLane="beg_0" departPos="2.20" departSpeed="0.00" departDelay="19.00" arrival="217.00" arrivalLane="end_0" arrivalPos="10.00" arrivalSpeed="8.17" duration="159.00" routeLength="507.80" waitSteps="92" timeLoss="106.24" rerouteNo="0" devices="tripinfo_moped.39" vType="moped" vaporized=""/>
    <tripinfo id="moped.44" depart="65.00" departLane="beg_1" departPos="2.20" departSpeed="0.00" departDelay="21.00" arrival="217.00" arrivalLane="end_1" arrivalPos="10.00" arrivalSpeed="8.34" duration="152.00" routeLength="507.80" waitSteps="100" timeLoss="119.15" rerouteNo="0" devices="tripinfo_moped.44" vType="moped" vaporized=""/>
    <tripinfo id="moped.43" depart="64.00" departLane="beg_0" departPos="2.20" departSpeed="0.00" departDelay="21.00" arrival="218.00" arrivalLane="end_1" arrivalPos="10.00" arrivalSpeed="8.57" duration="154.00" routeLength="507.80" waitSteps="97" timeLoss="120.81" rerouteNo="0" devices="tripinfo_moped.43" vType="moped" vaporized=""/>
    <tripinfo id="moped.38" depart="58.00" departLane="beg_1" departPos="2.20" departSpeed="0.00" departDelay="20.00" arrival="218.00" arrivalLane="end_1" arrivalPos="10.00" arrivalSpeed="7.81" duration="160.00" routeLength="507.80" waitSteps="103" timeLoss="129.39" rerouteNo="0" devices="tripinfo_moped.38" vType="moped" vaporized=""/>
    <tripinfo id="moped.53" depart="79.00" departLane="beg_1" departPos="2.20" departSpeed="0.00" departDelay="26.00" arrival="218.00" arrivalLane="end_1" arrivalPos="10.00" arrivalSpeed="7.69" duration="139.00" routeLength="507.80" waitSteps="89" timeLoss="108.47" rerouteNo="0" devices="tripinfo_moped.53" vType="moped" vaporized=""/>
    <tripinfo id="moped.52" depart="79.00" departLane="beg_0" departPos="2.20" departSpeed="0.00" departDelay="27.00" arrival="218.00" arrivalLane="end_0" arrivalPos="10.00" arrivalSpeed="7.93" duration="139.00" routeLength="507.80" waitSteps="85" timeLoss="103.93" rerouteNo="0" devices="tripinfo_moped.52" vType="moped" vaporized=""/>
    <tripinfo id="moped.48" depart="71.00" departLane="beg_0" departPos="2.20" departSpeed="0.00" departDelay="23.00" arrival="218.00" arrivalLane="end_0" arrivalPos="10.00" arrivalSpeed="7.86" duration="147.00" routeLength="507.80" waitSteps="74" timeLoss="88.97" rerouteNo="0" devices="tripinfo_moped.48" vType="moped" vaporized=""/>
    <tripinfo id="moped.47" depart="69.00" departLane="beg_1" departPos="2.20" departSpeed="0.00" departDelay="22.00" arrival="218.00" arrivalLane="end_0" arrivalPos="10.00" arrivalSpeed="7.89" duration="149.00" routeLength="507.80" waitSteps="82" timeLoss="96.83" rerouteNo="0" devices="tripinfo_moped.47" vType="moped" vaporized=""/>
    <tripinfo id="moped.49" depart="74.00" departLane="beg_0" departPos="2.20" departSpeed="0.00" departDelay="25.00" arrival="220.00" arrivalLane="end_0" arrivalPos="10.00" arrivalSpeed="7.53" duration="146.00" routeLength="507.80" waitSteps="66" timeLoss="79.08" rerouteNo="0" devices="tripinfo_moped.49" vType="moped" vaporized=""/>
    <tripinfo id="moped.58" depart="86.00" departLane="beg_0" departPos="2.20" departSpeed="0.00" departDelay="28.00" arrival="220.00" arrivalLane="end_0" arrivalPos="10.00" arrivalSpeed="8.90" duration="134.00" routeLength="507.80" waitSteps="81" timeLoss="99.63" rerouteNo="0" devices="tripinfo_moped.58" vType="moped" vaporized=""/>
    <tripinfo id="moped.42" depart="62.00" departLane="beg_1" departPos="2.20" departSpeed="0.00" departDelay="20.00" arrival="220.00" arrivalLane="end_1" arrivalPos="10.00" arrivalSpeed="8.73" duration="158.00" routeLength="507.80" waitSteps="103" timeLoss="127.15" rerouteNo="0" devices="tripinfo_moped.42" vType="moped" vaporized=""/>
    <tripinfo id="moped.51" depart="77.00" departLane="beg_1" departPos="2.20" departSpeed="0.00" departDelay="26.00" arrival="220.00" arrivalLane="end_1" arrivalPos="10.00" arrivalSpeed="8.68" duration="143.00" routeLength="507.80" waitSteps="92" timeLoss="112.21" rerouteNo="0" devices="tripinfo_moped.51" vType="moped" vaporized=""/>
    <tripinfo id="moped.57" depart="85.00" departLane="beg_0" departPos="2.20" departSpeed="0.00" departDelay="28.00" arrival="220.00" arrivalLane="end_1" arrivalPos="10.00" arrivalSpeed="8.70" duration="135.00" routeLength="507.80" waitSteps="79" timeLoss="104.32" rerouteNo="0" devices="tripinfo_moped.57" vType="moped" vaporized=""/>
    <tripinfo id="moped.41" depart="62.00" departLane="beg_0" departPos="2.20" departSpeed="0.00" departDelay="21.00" arrival="221.00" arrivalLane="end_1" arrivalPos="10.00" arrivalSpeed="8.81" duration="159.00" routeLength="507.80" waitSteps="100" timeLoss="116.99" rerouteNo="0" devices="tripinfo_moped.41" vType="moped" vaporized=""/>
    <tripinfo id="moped.63" depart="93.00" departLane="beg_0" departPos="2.20" departSpeed="0.00" departDelay="30.00" arrival="221.00" arrivalLane="end_0" arrivalPos="10.00" arrivalSpeed="8.43" duration="128.00" routeLength="507.80" waitSteps="66" timeLoss="89.49" rerouteNo="0" devices="tripinfo_moped.63" vType="moped" vaporized=""/>
    <tripinfo id="moped.67" depart="98.00" departLane="beg_1" departPos="2.20" departSpeed="0.00" departDelay="31.00" arrival="221.00" arrivalLane="end_0" arrivalPos="10.00" arrivalSpeed="8.92" duration="123.00" routeLength="507.80" waitSteps="57" timeLoss="73.75" rerouteNo="0" devices="tripinfo_moped.67" vType="moped" vaporized=""/>
    <tripinfo id="moped.54" depart="80.00" departLane="beg_1" departPos="2.20" departSpeed="0.00" departDelay="26.00" arrival="222.00" arrivalLane="end_1" arrivalPos="10.00" arrivalSpeed="8.65" duration="142.00" routeLength="507.80" waitSteps="84" timeLoss="105.31" rerouteNo="0" devices="tripinfo_moped.54" vType="moped" vaporized=""/>
    <tripinfo id="moped.59" depart="88.00" departLane="beg_0" departPos="2.20" departSpeed="0.00" departDelay="29.00" arrival="222.00" arrivalLane="end_1" arrivalPos="10.00" arrivalSpeed="9.06" duration="134.00" routeLength="507.80" waitSteps="74" timeLoss="93.40" rerouteNo="0" devices="tripinfo_moped.59" vType="moped" vaporized=""/>
    <tripinfo id="moped.46" depart="68.00" departLane="beg_1" departPos="2.20" departSpeed="0.00" departDelay="22.00" arrival="223.00" arrivalLane="end_1" arrivalPos="10.00" arrivalSpeed="9.32" duration="155.00" routeLength="507.80" waitSteps="99" timeLoss="117.85" rerouteNo="0" devices="tripinfo_moped.46" vType="moped" vaporized=""/>
    <tripinfo id="moped.55" depart="83.00" departLane="beg_1" departPos="2.20" departSpeed="0.00" departDelay="28.00" arrival="223.00" arrivalLane="end_1" arrivalPos="10.00" arrivalSpeed="8.49" duration="140.00" routeLength="507.80" waitSteps="84" timeLoss="102.92" rerouteNo="0" devices="tripinfo_moped.55" vType="moped" vaporized=""/>
    <tripinfo id="moped.64" depart="95.00" departLane="beg_1" departPos="2.20" departSpeed="0.00" departDelay="31.00" arrival="223.00" arrivalLane="end_0" arrivalPos="10.00" arrivalSpeed="9.64" duration="128.00" routeLength="507.80" waitSteps="65" timeLoss="82.15" rerouteNo="0" devices="tripinfo_moped.64" vType="moped" vaporized=""/>
    <tripinfo id="moped.50" depart="74.00" departLane="beg_1" departPos="2.20" departSpeed="0.00" departDelay="24.00" arrival="223.00" arrivalLane="end_0" arrivalPos="10.00" arrivalSpeed="7.51" duration="149.00" routeLength="507.80" waitSteps="69" timeLoss="83.51" rerouteNo="0" devices="tripinfo_moped.50" vType="moped" vaporized=""/>
    <tripinfo id="moped.75" depart="108.00" departLane="beg_0" departPos="2.20" departSpeed="0.00" departDelay="33.00" arrival="223.00" arrivalLane="end_0" arrivalPos="10.00" arrivalSpeed="8.88" duration="115.00" routeLength="507.80" waitSteps="57" timeLoss="76.47" rerouteNo="0" devices="tripinfo_moped.75" vType="moped" vaporized=""/>
    <tripinfo id="moped.77" depart="108.00" departLane="beg_0" departPos="2.20" departSpeed="0.00" departDelay="31.00" arrival="224.00" arrivalLane="end_0" arrivalPos="10.00" arrivalSpeed="9.38" duration="116.00" routeLength="507.80" waitSteps="58" timeLoss="77.13" rerouteNo="0" devices="tripinfo_moped.77" vType="moped" vaporized=""/>
    <tripinfo id="moped.68" depart="99.00" departLane="beg_1" departPos="2.20" departSpeed="0.00" departDelay="31.00" arrival="224.00" arrivalLane="end_1" arrivalPos="10.00" arrivalSpeed="10.13" duration="125.00" routeLength="507.80" waitSteps="70" timeLoss="91.72" rerouteNo="0" devices="tripinfo_moped.68" vType="moped" vaporized=""/>
    <tripinfo id="moped.60" depart="88.00" departLane="beg_1" departPos="2.20" departSpeed="0.00" departDelay="28.00" arrival="225.00" arrivalLane="end_1" arrivalPos="10.00" arrivalSpeed="10.18" duration="137.00" routeLength="507.80" waitSteps="83" timeLoss="106.00" rerouteNo="0" devices="tripinfo_moped.60" vType="moped" vaporized=""/>
    <tripinfo id="moped.56" depart="84.00" departLane="beg_1" departPos="2.20" departSpeed="0.00" departDelay="28.00" arrival="225.00" arrivalLane="end_1" arrivalPos="10.00" arrivalSpeed="9.63" duration="141.00" routeLength="507.80" waitSteps="73" timeLoss="88.15" rerouteNo="0" devices="tripinfo_moped.56" vType="moped" vaporized=""/>
    <tripinfo id="moped.70" depart="101.00" departLane="beg_0" departPos="2.20" departSpeed="0.00" departDelay="31.00" arrival="225.00" arrivalLane="end_1" arrivalPos="10.00" arrivalSpeed="9.79" duration="124.00" routeLength="507.80" waitSteps="69" timeLoss="89.57" rerouteNo="0" devices="tripinfo_moped.70" vType="moped" vaporized=""/>
    <tripinfo id="moped.62" depart="92.00" departLane="beg_0" departPos="2.20" departSpeed="0.00" departDelay="30.00" arrival="225.00" arrivalLane="end_0" arrivalPos="10.00" arrivalSpeed="10.12" duration="133.00" routeLength="507.80" waitSteps="68" timeLoss="97.36" rerouteNo="0" devices="tripinfo_moped.62" vType="moped" vaporized=""/>
    <tripinfo id="moped.82" depart="116.00" departLane="beg_0" departPos="2.20" departSpeed="0.00" departDelay="34.00" arrival="225.00" arrivalLane="end_0" arrivalPos="10.00" arrivalSpeed="9.94" duration="109.00" routeLength="507.80" waitSteps="55" timeLoss="73.70" rerouteNo="0" devices="tripinfo_moped.82" vType="moped" vaporized=""/>
    <tripinfo id="moped.74" depart="106.00" departLane="beg_1" departPos="2.20" departSpeed="0.00" departDelay="32.00" arrival="226.00" arrivalLane="end_0" arrivalPos="10.00" arrivalSpeed="9.61" duration="120.00" routeLength="507.80" waitSteps="54" timeLoss="77.27" rerouteNo="0" devices="tripinfo_moped.74" vType="moped" vaporized=""/>
    <tripinfo id="moped.66" depart="95.00" departLane="beg_0" departPos="2.20" departSpeed="0.00" departDelay="29.00" arrival="226.00" arrivalLane="end_0" arrivalPos="10.00" arrivalSpeed="10.01" duration="131.00" routeLength="507.80" waitSteps="62" timeLoss="79.79" rerouteNo="0" devices="tripinfo_moped.66" vType="moped" vaporized=""/>
    <tripinfo id="moped.83" depart="118.00" departLane="beg_1" departPos="2.20" departSpeed="0.00" departDelay="35.00" arrival="226.00" arrivalLane="end_0" arrivalPos="10.00" arrivalSpeed="10.05" duration="108.00" routeLength="507.80" waitSteps="48" timeLoss="67.23" rerouteNo="0" devices="tripinfo_moped.83" vType="moped" vaporized=""/>
    <tripinfo id="moped.61" depart="92.00" departLane="beg_1" departPos="2.20" departSpeed="0.00" departDelay="31.00" arrival="227.00" arrivalLane="end_1" arrivalPos="10.00" arrivalSpeed="10.53" duration="135.00" routeLength="507.80" waitSteps="82" timeLoss="103.88" rerouteNo="0" devices="tripinfo_moped.61" vType="moped" vaporized=""/>
    <tripinfo id="moped.72" depart="103.00" departLane="beg_0" departPos="2.20" departSpeed="0.00" departDelay="31.00" arrival="227.00" arrivalLane="end_1" arrivalPos="10.00" arrivalSpeed="10.65" duration="124.00" routeLength="507.80" waitSteps="63" timeLoss="78.73" rerouteNo="0" devices="tripinfo_moped.72" vType="moped" vaporized=""/>
    <tripinfo id="moped.65" depart="95.00" departLane="beg_1" departPos="2.20" departSpeed="0.00" departDelay="30.00" arrival="227.00" arrivalLane="end_1" arrivalPos="10.00" arrivalSpeed="8.62" duration="132.00" routeLength="507.80" waitSteps="61" timeLoss="75.11" rerouteNo="0" devices="tripinfo_moped.65" vType="moped" vaporized=""/>
    <tripinfo id="moped.69" depart="99.00" departLane="beg_0" departPos="2.20" departSpeed="0.00" departDelay="30.00" arrival="228.00" arrivalLane="end_1" arrivalPos="10.00" arrivalSpeed="10.55" duration="129.00" routeLength="507.80" waitSteps="74" timeLoss="94.45" rerouteNo="0" devices="tripinfo_moped.69" vType="moped" vaporized=""/>
    <tripinfo id="moped.94" depart="136.00" departLane="beg_0" departPos="2.20" departSpeed="0.00" departDelay="42.00" arrival="228.00" arrivalLane="end_0" arrivalPos="10.00" arrivalSpeed="10.24" duration="92.00" routeLength="507.80" waitSteps="34" timeLoss="60.87" rerouteNo="0" devices="tripinfo_moped.94" vType="moped" vaporized=""/>
    <tripinfo id="moped.73" depart="104.00" departLane="beg_1" departPos="2.20" departSpeed="0.00" departDelay="31.00" arrival="228.00" arrivalLane="end_0" arrivalPos="10.00" arrivalSpeed="10.66" duration="124.00" routeLength="507.80" waitSteps="62" timeLoss="92.14" rerouteNo="0" devices="tripinfo_moped.73" vType="moped" vaporized=""/>
    <tripinfo id="moped.86" depart="123.00" departLane="beg_0" departPos="2.20" departSpeed="0.00" departDelay="37.00" arrival="228.00" arrivalLane="end_0" arrivalPos="10.00" arrivalSpeed="11.04" duration="105.00" routeLength="507.80" waitSteps="47" timeLoss="68.05" rerouteNo="0" devices="tripinfo_moped.86" vType="moped" vaporized=""/>
    <tripinfo id="moped.93" depart="135.00" departLane="beg_1" departPos="2.20" departSpeed="0.00" departDelay="42.00" arrival="229.00" arrivalLane="end_0" arrivalPos="10.00" arrivalSpeed="10.15" duration="94.00" routeLength="507.80" waitSteps="30" timeLoss="45.66" rerouteNo="0" devices="tripinfo_moped.93" vType="moped" vaporized=""/>
    <tripinfo id="moped.90" depart="128.00" departLane="beg_0" departPos="2.20" departSpeed="0.00" departDelay="38.00" arrival="229.00" arrivalLane="end_0" arrivalPos="10.00" arrivalSpeed="11.05" duration="101.00" routeLength="507.80" waitSteps="47" timeLoss="66.01" rerouteNo="0" devices="tripinfo_moped.90" vType="moped" vaporized=""/>
    <tripinfo id="moped.76" depart="108.00" departLane="beg_1" departPos="2.20" departSpeed="0.00" departDelay="32.00" arrival="229.00" arrivalLane="end_1" arrivalPos="10.00" arrivalSpeed="10.78" duration="121.00" routeLength="507.80" waitSteps="59" timeLoss="87.00" rerouteNo="0" devices="tripinfo_moped.76" vType="moped" vaporized=""/>
    <tripinfo id="moped.79" depart="112.00" departLane="beg_0" departPos="2.20" departSpeed="0.00" departDelay="33.00" arrival="229.00" arrivalLane="end_1" arrivalPos="10.00" arrivalSpeed="10.95" duration="117.00" routeLength="507.80" waitSteps="62" timeLoss="85.95" rerouteNo="0" devices="tripinfo_moped.79" vType="moped" vaporized=""/>
    <tripinfo id="moped.78" depart="110.00" departLane="beg_1" departPos="2.20" departSpeed="0.00" departDelay="32.00" arrival="230.00" arrivalLane="end_1" arrivalPos="10.00" arrivalSpeed="10.67" duration="120.00" routeLength="507.80" waitSteps="61" timeLoss="83.85" rerouteNo="0" devices="tripinfo_moped.78" vType="moped" vaporized=""/>
    <tripinfo id="moped.71" depart="102.00" departLane="beg_1" departPos="2.20" departSpeed="0.00" departDelay="31.00" arrival="230.00" arrivalLane="end_1" arrivalPos="10.00" arrivalSpeed="10.95" duration="128.00" routeLength="507.80" waitSteps="68" timeLoss="87.82" rerouteNo="0" devices="tripinfo_moped.71" vType="moped" vaporized=""/>