<?xml version="1.0" encoding="UTF-8"?>

<!-- generated on Tue Oct 20 14:28:12 2015 by SUMO Version dev-SVN-r19113
<?xml version="1.0" encoding="UTF-8"?>

<configuration xmlns:xsi="http://www.w3.org/2001/XMLSchema-instance" xsi:noNamespaceSchemaLocation="http://sumo.dlr.de/xsd/sumoConfiguration.xsd">

    <input>
        <net-file value="net.net.xml"/>
        <route-files value="input_routes.rou.xml"/>
    </input>

    <output>
        <tripinfo-output value="tripinfos.xml"/>
    </output>

    <processing>
        <lateral-resolution value="1.1"/>
    </processing>

    <report>
        <xml-validation value="never"/>
        <no-step-log value="true"/>
    </report>

</configuration>
-->

<tripinfos xmlns:xsi="http://www.w3.org/2001/XMLSchema-instance" xsi:noNamespaceSchemaLocation="http://sumo.dlr.de/xsd/tripinfo_file.xsd">
    <tripinfo id="moped.3" depart="5.00" departLane="beg_0" departPos="2.20" departSpeed="0.00" departDelay="2.00" arrival="204.00" arrivalLane="end_1" arrivalPos="10.00" arrivalSpeed="4.62" duration="199.00" routeLength="507.80" waitSteps="146" timeLoss="168.33" rerouteNo="0" devices="tripinfo_moped.3" vType="moped" vaporized=""/>
    <tripinfo id="moped.10" depart="19.00" departLane="beg_1" departPos="2.20" departSpeed="0.00" departDelay="9.00" arrival="204.00" arrivalLane="end_1" arrivalPos="10.00" arrivalSpeed="4.14" duration="185.00" routeLength="507.80" waitSteps="138" timeLoss="154.39" rerouteNo="0" devices="tripinfo_moped.10" vType="moped" vaporized=""/>
    <tripinfo id="moped.4" depart="8.00" departLane="beg_0" departPos="2.20" departSpeed="0.00" departDelay="4.00" arrival="204.00" arrivalLane="end_1" arrivalPos="10.00" arrivalSpeed="4.13" duration="196.00" routeLength="507.80" waitSteps="147" timeLoss="162.39" rerouteNo="0" devices="tripinfo_moped.4" vType="moped" vaporized=""/>
    <tripinfo id="moped.2" depart="4.00" departLane="beg_1" departPos="2.20" departSpeed="0.00" departDelay="2.00" arrival="204.00" arrivalLane="end_0" arrivalPos="10.00" arrivalSpeed="4.53" duration="200.00" routeLength="507.80" waitSteps="150" timeLoss="164.32" rerouteNo="0" devices="tripinfo_moped.2" vType="moped" vaporized=""/>
    <tripinfo id="moped.0" depart="0.00" departLane="beg_0" departPos="2.20" departSpeed="0.00" departDelay="0.00" arrival="204.00" arrivalLane="end_0" arrivalPos="10.00" arrivalSpeed="4.55" duration="204.00" routeLength="507.80" waitSteps="157" timeLoss="172.84" rerouteNo="0" devices="tripinfo_moped.0" vType="moped" vaporized=""/>
    <tripinfo id="moped.1" depart="1.00" departLane="beg_1" departPos="2.20" departSpeed="0.00" departDelay="0.00" arrival="204.00" arrivalLane="end_0" arrivalPos="10.00" arrivalSpeed="4.29" duration="203.00" routeLength="507.80" waitSteps="144" timeLoss="158.00" rerouteNo="0" devices="tripinfo_moped.1" vType="moped" vaporized=""/>
    <tripinfo id="moped.9" depart="16.00" departLane="beg_1" departPos="2.20" departSpeed="0.00" departDelay="7.00" arrival="206.00" arrivalLane="end_0" arrivalPos="10.00" arrivalSpeed="4.99" duration="190.00" routeLength="507.80" waitSteps="114" timeLoss="125.64" rerouteNo="0" devices="tripinfo_moped.9" vType="moped" vaporized=""/>
    <tripinfo id="moped.7" depart="12.00" departLane="beg_1" departPos="2.20" departSpeed="0.00" departDelay="5.00" arrival="206.00" arrivalLane="end_0" arrivalPos="10.00" arrivalSpeed="4.88" duration="194.00" routeLength="507.80" waitSteps="125" timeLoss="138.28" rerouteNo="0" devices="tripinfo_moped.7" vType="moped" vaporized=""/>
    <tripinfo id="moped.5" depart="8.00" departLane="beg_1" departPos="2.20" departSpeed="0.00" departDelay="3.00" arrival="206.00" arrivalLane="end_0" arrivalPos="10.00" arrivalSpeed="4.78" duration="198.00" routeLength="507.80" waitSteps="112" timeLoss="123.80" rerouteNo="0" devices="tripinfo_moped.5" vType="moped" vaporized=""/>
    <tripinfo id="moped.18" depart="33.00" departLane="beg_1" departPos="2.20" departSpeed="0.00" departDelay="15.00" arrival="206.00" arrivalLane="end_1" arrivalPos="10.00" arrivalSpeed="4.95" duration="173.00" routeLength="507.80" waitSteps="112" timeLoss="127.63" rerouteNo="0" devices="tripinfo_moped.18" vType="moped" vaporized=""/>
    <tripinfo id="moped.14" depart="26.00" departLane="beg_1" departPos="2.20" departSpeed="0.00" departDelay="12.00" arrival="206.00" arrivalLane="end_1" arrivalPos="10.00" arrivalSpeed="4.79" duration="180.00" routeLength="507.80" waitSteps="128" timeLoss="142.40" rerouteNo="0" devices="tripinfo_moped.14" vType="moped" vaporized=""/>
    <tripinfo id="moped.12" depart="22.00" departLane="beg_1" departPos="2.20" departSpeed="0.00" departDelay="10.00" arrival="207.00" arrivalLane="end_1" arrivalPos="10.00" arrivalSpeed="4.73" duration="185.00" routeLength="507.80" waitSteps="134" timeLoss="152.83" rerouteNo="0" devices="tripinfo_moped.12" vType="moped" vaporized=""/>
    <tripinfo id="moped.11" depart="22.00" departLane="beg_0" departPos="2.20" departSpeed="0.00" departDelay="11.00" arrival="208.00" arrivalLane="end_0" arrivalPos="10.00" arrivalSpeed="5.00" duration="186.00" routeLength="507.80" waitSteps="114" timeLoss="152.04" rerouteNo="0" devices="tripinfo_moped.11" vType="moped" vaporized=""/>
    <tripinfo id="moped.22" depart="41.00" departLane="beg_0" departPos="2.20" departSpeed="0.00" departDelay="19.00" arrival="208.00" arrivalLane="end_1" arrivalPos="10.00" arrivalSpeed="5.61" duration="167.00" routeLength="507.80" waitSteps="110" timeLoss="127.28" rerouteNo="0" devices="tripinfo_moped.22" vType="moped" vaporized=""/>
    <tripinfo id="moped.6" depart="12.00" departLane="beg_0" departPos="2.20" departSpeed="0.00" departDelay="6.00" arrival="209.00" arrivalLane="end_0" arrivalPos="10.00" arrivalSpeed="6.44" duration="197.00" routeLength="507.80" waitSteps="111" timeLoss="164.39" rerouteNo="0" devices="tripinfo_moped.6" vType="moped" vaporized=""/>
    <tripinfo id="moped.17" depart="33.00" departLane="beg_0" departPos="2.20" departSpeed="0.00" departDelay="16.00" arrival="209.00" arrivalLane="end_0" arrivalPos="10.00" arrivalSpeed="5.59" duration="176.00" routeLength="507.80" waitSteps="118" timeLoss="131.24" rerouteNo="0" devices="tripinfo_moped.17" vType="moped" vaporized=""/>
    <tripinfo id="moped.8" depart="16.00" departLane="beg_0" departPos="2.20" departSpeed="0.00" departDelay="8.00" arrival="209.00" arrivalLane="end_1" arrivalPos="10.00" arrivalSpeed="6.11" duration="193.00" routeLength="507.80" waitSteps="113" timeLoss="147.52" rerouteNo="0" devices="tripinfo_moped.8" vType="moped" vaporized=""/>
    <tripinfo id="moped.21" depart="40.00" departLane="beg_1" departPos="2.20" departSpeed="0.00" departDelay="19.00" arrival="209.00" arrivalLane="end_1" arrivalPos="10.00" arrivalSpeed="4.40" duration="169.00" routeLength="507.80" waitSteps="118" timeLoss="134.17" rerouteNo="0" devices="tripinfo_moped.21" vType="moped" vaporized=""/>
    <tripinfo id="moped.13" depart="25.00" departLane="beg_0" departPos="2.20" departSpeed="0.00" departDelay="12.00" arrival="210.00" arrivalLane="end_1" arrivalPos="10.00" arrivalSpeed="6.06" duration="185.00" routeLength="507.80" waitSteps="114" timeLoss="154.41" rerouteNo="0" devices="tripinfo_moped.13" vType="moped" vaporized=""/>
    <tripinfo id="moped.19" depart="36.00" departLane="beg_0" departPos="2.20" departSpeed="0.00" departDelay="17.00" arrival="210.00" arrivalLane="end_1" arrivalPos="10.00" arrivalSpeed="6.40" duration="174.00" routeLength="507.80" waitSteps="107" timeLoss="143.40" rerouteNo="0" devices="tripinfo_moped.19" vType="moped" vaporized=""/>
    <tripinfo id="moped.15" depart="30.00" departLane="beg_0" departPos="2.20" departSpeed="0.00" departDelay="15.00" arrival="210.00" arrivalLane="end_0" arrivalPos="10.00" arrivalSpeed="6.38" duration="180.00" routeLength="507.80" waitSteps="113" timeLoss="133.04" rerouteNo="0" devices="tripinfo_moped.15" vType="moped" vaporized=""/>
    <tripinfo id="moped.16" depart="30.00" departLane="beg_1" departPos="2.20" departSpeed="0.00" departDelay="14.00" arrival="210.00" arrivalLane="end_0" arrivalPos="10.00" arrivalSpeed="6.39" duration="180.00" routeLength="507.80" waitSteps="106" timeLoss="122.33" rerouteNo="0" devices="tripinfo_moped.16" vType="moped" vaporized=""/>
    <tripinfo id="moped.31" depart="58.00" departLane="beg_1" departPos="2.20" departSpeed="0.00" departDelay="27.00" arrival="211.00" arrivalLane="end_1" arrivalPos="10.00" arrivalSpeed="6.08" duration="153.00" routeLength="507.80" waitSteps="98" timeLoss="122.37" rerouteNo="0" devices="tripinfo_moped.31" vType="moped" vaporized=""/>
    <tripinfo id="moped.20" depart="36.00" departLane="beg_1" departPos="2.20" departSpeed="0.00" departDelay="16.00" arrival="211.00" arrivalLane="end_0" arrivalPos="10.00" arrivalSpeed="6.33" duration="175.00" routeLength="507.80" waitSteps="118" timeLoss="139.91" rerouteNo="0" devices="tripinfo_moped.20" vType="moped" vaporized=""/>
    <tripinfo id="moped.26" depart="50.00" departLane="beg_1" departPos="2.20" departSpeed="0.00" departDelay="24.00" arrival="212.00" arrivalLane="end_0" arrivalPos="10.00" arrivalSpeed="7.02" duration="162.00" routeLength="507.80" waitSteps="99" timeLoss="113.16" rerouteNo="0" devices="tripinfo_moped.26" vType="moped" vaporized=""/>
    <tripinfo id="moped.23" depart="43.00" departLane="beg_1" departPos="2.20" departSpeed="0.00" departDelay="20.00" arrival="212.00" arrivalLane="end_0" arrivalPos="10.00" arrivalSpeed="6.70" duration="169.00" routeLength="507.80" waitSteps="101" timeLoss="114.17" rerouteNo="0" devices="tripinfo_moped.23" vType="moped" vaporized=""/>
    <tripinfo id="moped.33" depart="62.00" departLane="beg_1" departPos="2.20" departSpeed="0.00" departDelay="29.00" arrival="213.00" arrivalLane="end_0" arrivalPos="10.00" arrivalSpeed="6.60" duration="151.00" routeLength="507.80" waitSteps="95" timeLoss="120.17" rerouteNo="0" devices="tripinfo_moped.33" vType="moped" vaporized=""/>
    <tripinfo id="moped.28" depart="54.00" departLane="beg_0" departPos="2.20" departSpeed="0.00" departDelay="26.00" arrival="213.00" arrivalLane="end_1" arrivalPos="10.00" arrivalSpeed="6.78" duration="159.00" routeLength="507.80" waitSteps="91" timeLoss="128.10" rerouteNo="0" devices="tripinfo_moped.28" vType="moped" vaporized=""/>
    <tripinfo id="moped.25" depart="47.00" departLane="beg_1" departPos="2.20" departSpeed="0.00" departDelay="22.00" arrival="213.00" arrivalLane="end_1" arrivalPos="10.00" arrivalSpeed="7.49" duration="166.00" routeLength="507.80" waitSteps="91" timeLoss="106.10" rerouteNo="0" devices="tripinfo_moped.25" vType="moped" vaporized=""/>
    <tripinfo id="moped.29" depart="54.00" departLane="beg_1" departPos="2.20" departSpeed="0.00" departDelay="25.00" arrival="213.00" arrivalLane="end_1" arrivalPos="10.00" arrivalSpeed="6.89" duration="159.00" routeLength="507.80" waitSteps="98" timeLoss="112.61" rerouteNo="0" devices="tripinfo_moped.29" vType="moped" vaporized=""/>
    <tripinfo id="moped.45" depart="86.00" departLane="beg_1" departPos="2.20" departSpeed="0.00" departDelay="41.00" arrival="214.00" arrivalLane="end_1" arrivalPos="10.00" arrivalSpeed="7.17" duration="128.00" routeLength="507.80" waitSteps="80" timeLoss="97.43" rerouteNo="0" devices="tripinfo_moped.45" vType="moped" vaporized=""/>
    <tripinfo id="moped.35" depart="68.00" departLane="beg_0" departPos="2.20" departSpeed="0.00" departDelay="33.00" arrival="214.00" arrivalLane="end_0" arrivalPos="10.00" arrivalSpeed="7.44" duration="146.00" routeLength="507.80" waitSteps="93" timeLoss="111.30" rerouteNo="0" devices="tripinfo_moped.35" vType="moped" vaporized=""/>
    <tripinfo id="moped.30" depart="57.00" departLane="beg_0" departPos="2.20" departSpeed="0.00" departDelay="27.00" arrival="215.00" arrivalLane="end_1" arrivalPos="10.00" arrivalSpeed="7.70" duration="158.00" routeLength="507.80" waitSteps="78" timeLoss="127.08" rerouteNo="0" devices="tripinfo_moped.30" vType="moped" vaporized=""/>
    <tripinfo id="moped.37" depart="72.00" departLane="beg_1" departPos="2.20" departSpeed="0.00" departDelay="35.00" arrival="215.00" arrivalLane="end_1" arrivalPos="10.00" arrivalSpeed="8.04" duration="143.00" routeLength="507.80" waitSteps="89" timeLoss="112.07" rerouteNo="0" devices="tripinfo_moped.37" vType="moped" vaporized=""/>
    <tripinfo id="moped.42" depart="79.00" departLane="beg_1" departPos="2.20" departSpeed="0.00" departDelay="37.00" arrival="215.00" arrivalLane="end_0" arrivalPos="10.00" arrivalSpeed="7.42" duration="136.00" routeLength="507.80" waitSteps="85" timeLoss="105.08" rerouteNo="0" devices="tripinfo_moped.42" vType="moped" vaporized=""/>
    <tripinfo id="moped.36" depart="69.00" departLane="beg_1" departPos="2.20" departSpeed="0.00" departDelay="33.00" arrival="215.00" arrivalLane="end_0" arrivalPos="10.00" arrivalSpeed="7.74" duration="146.00" routeLength="507.80" waitSteps="88" timeLoss="105.71" rerouteNo="0" devices="tripinfo_moped.36" vType="moped" vaporized=""/>
    <tripinfo id="moped.40" depart="76.00" departLane="beg_0" departPos="2.20" departSpeed="0.00" departDelay="36.00" arrival="216.00" arrivalLane="end_0" arrivalPos="10.00" arrivalSpeed="7.68" duration="140.00" routeLength="507.80" waitSteps="79" timeLoss="106.26" rerouteNo="0" devices="tripinfo_moped.40" vType="moped" vaporized=""/>
    <tripinfo id="moped.44" depart="83.00" departLane="beg_0" departPos="2.20" departSpeed="0.00" departDelay="39.00" arrival="216.00" arrivalLane="end_0" arrivalPos="10.00" arrivalSpeed="6.50" duration="133.00" routeLength="507.80" waitSteps="81" timeLoss="100.60" rerouteNo="0" devices="tripinfo_moped.44" vType="moped" vaporized=""/>
    <tripinfo id="moped.34" depart="65.00" departLane="beg_0" departPos="2.20" departSpeed="0.00" departDelay="31.00" arrival="216.00" arrivalLane="end_1" arrivalPos="10.00" arrivalSpeed="7.71" duration="151.00" routeLength="507.80" waitSteps="77" timeLoss="113.66" rerouteNo="0" devices="tripinfo_moped.34" vType="moped" vaporized=""/>
    <tripinfo id="moped.27" depart="51.00" departLane="beg_0" departPos="2.20" departSpeed="0.00" departDelay="24.00" arrival="216.00" arrivalLane="end_1" arrivalPos="10.00" arrivalSpeed="7.74" duration="165.00" routeLength="507.80" waitSteps="76" timeLoss="121.72" rerouteNo="0" devices="tripinfo_moped.27" vType="moped" vaporized=""/>
    <tripinfo id="moped.43" depart="83.00" departLane="beg_1" departPos="2.20" departSpeed="0.00" departDelay="40.00" arrival="217.00" arrivalLane="end_1" arrivalPos="10.00" arrivalSpeed="7.35" duration="134.00" routeLength="507.80" waitSteps="80" timeLoss="100.93" rerouteNo="0" devices="tripinfo_moped.43" vType="moped" vaporized=""/>
    <tripinfo id="moped.24" depart="45.00" departLane="beg_0" departPos="2.20" departSpeed="0.00" departDelay="21.00" arrival="217.00" arrivalLane="end_0" arrivalPos="10.00" arrivalSpeed="6.55" duration="172.00" routeLength="507.80" waitSteps="82" timeLoss="94.40" rerouteNo="0" devices="tripinfo_moped.24" vType="moped" vaporized=""/>
    <tripinfo id="moped.39" depart="76.00" departLane="beg_1" departPos="2.20" departSpeed="0.00" departDelay="37.00" arrival="218.00" arrivalLane="end_0" arrivalPos="10.00" arrivalSpeed="8.07" duration="142.00" routeLength="507.80" waitSteps="76" timeLoss="89.34" rerouteNo="0" devices="tripinfo_moped.39" vType="moped" vaporized=""/>
    <tripinfo id="moped.32" depart="61.00" departLane="beg_0" departPos="2.20" departSpeed="0.00" departDelay="29.00" arrival="218.00" arrivalLane="end_0" arrivalPos="10.00" arrivalSpeed="8.03" duration="157.00" routeLength="507.80" waitSteps="81" timeLoss="120.70" rerouteNo="0" devices="tripinfo_moped.32" vType="moped" vaporized=""/>
    <tripinfo id="moped.47" depart="89.00" departLane="beg_0" departPos="2.20" departSpeed="0.00" departDelay="42.00" arrival="218.00" arrivalLane="end_1" arrivalPos="10.00" arrivalSpeed="8.15" duration="129.00" routeLength="507.80" waitSteps="61" timeLoss="76.35" rerouteNo="0" devices="tripinfo_moped.47" vType="moped" vaporized=""/>
    <tripinfo id="moped.51" depart="96.00" departLane="beg_1" departPos="2.20" departSpeed="0.00" departDelay="45.00" arrival="218.00" arrivalLane="end_1" arrivalPos="10.00" arrivalSpeed="7.42" duration="122.00" routeLength="507.80" waitSteps="71" timeLoss="91.42" rerouteNo="0" devices="tripinfo_moped.51" vType="moped" vaporized=""/>
    <tripinfo id="moped.53" depart="100.00" departLane="beg_1" departPos="2.20" departSpeed="0.00" departDelay="47.00" arrival="219.00" arrivalLane="end_1" arrivalPos="10.00" arrivalSpeed="8.26" duration="119.00" routeLength="507.80" waitSteps="65" timeLoss="88.20" rerouteNo="0" devices="tripinfo_moped.53" vType="moped" vaporized=""/>
    <tripinfo id="moped.57" depart="108.00" departLane="beg_1" departPos="2.20" departSpeed="0.00" departDelay="51.00" arrival="219.00" arrivalLane="end_1" arrivalPos="10.00" arrivalSpeed="8.54" duration="111.00" routeLength="507.80" waitSteps="59" timeLoss="80.48" rerouteNo="0" devices="tripinfo_moped.57" vType="moped" vaporized=""/>
    <tripinfo id="moped.46" depart="86.00" departLane="beg_0" departPos="2.20" departSpeed="0.00" departDelay="40.00" arrival="219.00" arrivalLane="end_0" arrivalPos="10.00" arrivalSpeed="8.45" duration="133.00" routeLength="507.80" waitSteps="76" timeLoss="95.51" rerouteNo="0" devices="tripinfo_moped.46" vType="moped" vaporized=""/>
    <tripinfo id="moped.41" depart="79.00" departLane="beg_0" departPos="2.20" departSpeed="0.00" departDelay="38.00" arrival="219.00" arrivalLane="end_0" arrivalPos="10.00" arrivalSpeed="8.24" duration="140.00" routeLength="507.80" waitSteps="73" timeLoss="98.31" rerouteNo="0" devices="tripinfo_moped.41" vType="moped" vaporized=""/>
    <tripinfo id="moped.58" depart="109.00" departLane="beg_0" departPos="2.20" departSpeed="0.00" departDelay="51.00" arrival="220.00" arrivalLane="end_1" arrivalPos="10.00" arrivalSpeed="8.85" duration="111.00" routeLength="507.80" waitSteps="58" timeLoss="76.43" rerouteNo="0" devices="tripinfo_moped.58" vType="moped" vaporized=""/>
    <tripinfo id="moped.38" depart="72.00" departLane="beg_0" departPos="2.20" departSpeed="0.00" departDelay="34.00" arrival="220.00" arrivalLane="end_0" arrivalPos="10.00" arrivalSpeed="9.26" duration="148.00" routeLength="507.80" waitSteps="79" timeLoss="116.96" rerouteNo="0" devices="tripinfo_moped.38" vType="moped" vaporized=""/>
    <tripinfo id="moped.48" depart="89.00" departLane="beg_1" departPos="2.20" departSpeed="0.00" departDelay="41.00" arrival="220.00" arrivalLane="end_0" arrivalPos="10.00" arrivalSpeed="8.54" duration="131.00" routeLength="507.80" waitSteps="54" timeLoss="72.69" rerouteNo="0" devices="tripinfo_moped.48" vType="moped" vaporized=""/>
    <tripinfo id="moped.55" depart="105.00" departLane="beg_0" departPos="2.20" departSpeed="0.00" departDelay="50.00" arrival="221.00" arrivalLane="end_0" arrivalPos="10.00" arrivalSpeed="8.83" duration="116.00" routeLength="507.80" waitSteps="61" timeLoss="78.69" rerouteNo="0" devices="tripinfo_moped.55" vType="moped" vaporized=""/>
    <tripinfo id="moped.52" depart="98.00" departLane="beg_0" departPos="2.20" departSpeed="0.00" departDelay="46.00" arrival="221.00" arrivalLane="end_1" arrivalPos="10.00" arrivalSpeed="9.03" duration="123.00" routeLength="507.80" waitSteps="61" timeLoss="87.54" rerouteNo="0" devices="tripinfo_moped.52" vType="moped" vaporized=""/>
    <tripinfo id="moped.50" depart="95.00" departLane="beg_0" departPos="2.20" departSpeed="0.00" departDelay="45.00" arrival="222.00" arrivalLane="end_0" arrivalPos="10.00" arrivalSpeed="7.46" duration="127.00" routeLength="507.80" waitSteps="48" timeLoss="61.63" rerouteNo="0" devices="tripinfo_moped.50" vType="moped" vaporized=""/>
    <tripinfo id="moped.49" depart="92.00" departLane="beg_1" departPos="2.20" departSpeed="0.00" departDelay="43.00" arrival="222.00" arrivalLane="end_0" arrivalPos="10.00" arrivalSpeed="7.52" duration="130.00" routeLength="507.80" waitSteps="49" timeLoss="63.29" rerouteNo="0" devices="tripinfo_moped.49" vType="moped" vaporized=""/>
    <tripinfo id="moped.62" depart="117.00" departLane="beg_0" departPos="2.20" departSpeed="0.00" departDelay="55.00" arrival="222.00" arrivalLane="end_1" arrivalPos="10.00" arrivalSpeed="9.19" duration="105.00" routeLength="507.80" waitSteps="50" timeLoss="69.49" rerouteNo="0" devices="tripinfo_moped.62" vType="moped" vaporized=""/>
    <tripinfo id="moped.60" depart="113.00" departLane="beg_1" departPos="2.20" departSpeed="0.00" departDelay="53.00" arrival="222.00" arrivalLane="end_1" arrivalPos="10.00" arrivalSpeed="8.06" duration="109.00" routeLength="507.80" waitSteps="56" timeLoss="78.35" rerouteNo="0" devices="tripinfo_moped.60" vType="moped" vaporized=""/>
    <tripinfo id="moped.61" depart="116.00" departLane="beg_1" departPos="2.20" departSpeed="0.00" departDelay="55.00" arrival="222.00" arrivalLane="end_1" arrivalPos="10.00" arrivalSpeed="8.44" duration="106.00" routeLength="507.80" waitSteps="53" timeLoss="75.43" rerouteNo="0" devices="tripinfo_moped.61" vType="moped" vaporized=""/>
    <tripinfo id="moped.64" depart="121.00" departLane="beg_0" departPos="2.20" departSpeed="0.00" departDelay="57.00" arrival="223.00" arrivalLane="end_0" arrivalPos="10.00" arrivalSpeed="10.26" duration="102.00" routeLength="507.80" waitSteps="40" timeLoss="56.12" rerouteNo="0" devices="tripinfo_moped.64" vType="moped" vaporized=""/>
    <tripinfo id="moped.68" depart="132.00" departLane="beg_1" departPos="2.20" departSpeed="0.00" departDelay="64.00" arrival="223.00" arrivalLane="end_0" arrivalPos="10.00" arrivalSpeed="8.36" duration="91.00" routeLength="507.80" waitSteps="34" timeLoss="58.77" rerouteNo="0" devices="tripinfo_moped.68" vType="moped" vaporized=""/>
    <tripinfo id="moped.63" depart="120.00" departLane="beg_1" departPos="2.20" departSpeed="0.00" departDelay="57.00" arrival="224.00" arrivalLane="end_0" arrivalPos="10.00" arrivalSpeed="9.83" duration="104.00" routeLength="507.80" waitSteps="45" timeLoss="65.50" rerouteNo="0" devices="tripinfo_moped.63" vType="moped" vaporized=""/>
    <tripinfo id="moped.59" depart="113.00" departLane="beg_0" departPos="2.20" departSpeed="0.00" departDelay="54.00" arrival="224.00" arrivalLane="end_1" arrivalPos="10.00" arrivalSpeed="9.27" duration="111.00" routeLength="507.80" waitSteps="50" timeLoss="70.06" rerouteNo="0" devices="tripinfo_moped.59" vType="moped" vaporized=""/>
    <tripinfo id="moped.54" depart="102.00" departLane="beg_0" departPos="2.20" departSpeed="0.00" departDelay="48.00" arrival="224.00" arrivalLane="end_1" arrivalPos="10.00" arrivalSpeed="9.23" duration="122.00" routeLength="507.80" waitSteps="49" timeLoss="85.23" rerouteNo="0" devices="tripinfo_moped.54" vType="moped" vaporized=""/>
    <tripinfo id="moped.56" depart="105.00" departLane="beg_1" departPos="2.20" departSpeed="0.00" departDelay="49.00" arrival="224.00" arrivalLane="end_1" arrivalPos="10.00" arrivalSpeed="9.48" duration="119.00" routeLength="507.80" waitSteps="50" timeLoss="65.80" rerouteNo="0" devices="tripinfo_moped.56" vType="moped" vaporized=""/>
    <tripinfo id="moped.69" depart="133.00" departLane="beg_0" departPos="2.20" departSpeed="0.00" departDelay="64.00" arrival="225.00" arrivalLane="end_1" arrivalPos="10.00" arrivalSpeed="9.35" duration="92.00" routeLength="507.80" waitSteps="32" timeLoss="57.46" rerouteNo="0" devices="tripinfo_moped.69" vType="moped" vaporized=""/>
    <tripinfo id="moped.71" depart="138.00" departLane="beg_0" departPos="2.20" departSpeed="0.00" departDelay="67.00" arrival="225.00" arrivalLane="end_1" arrivalPos="10.00" arrivalSpeed="9.30" duration="87.00" routeLength="507.80" waitSteps="27" timeLoss="47.06" rerouteNo="0" devices="tripinfo_moped.71" vType="moped" vaporized=""/>
    <tripinfo id="moped.66" depart="128.00" departLane="beg_0" departPos="2.20" departSpeed="0.00" departDelay="62.00" arrival="225.00" arrivalLane="end_0" arrivalPos="10.00" arrivalSpeed="9.95" duration="97.00" routeLength="507.80" waitSteps="29" timeLoss="45.52" rerouteNo="0" devices="tripinfo_moped.66" vType="moped" vaporized=""/>
    <tripinfo id="moped.65" depart="124.00" departLane="beg_0" departPos="2.20" departSpeed="0.00" departDelay="59.00" arrival="225.00" arrivalLane="end_0" arrivalPos="10.00" arrivalSpeed="8.97" duration="101.00" routeLength="507.80" waitSteps="28" timeLoss="44.13" rerouteNo="0" devices="tripinfo_moped.65" vType="moped" vaporized=""/>
    <tripinfo id="moped.67" depart="128.00" departLane="beg_1" departPos="2.20" departSpeed="0.00" departDelay="61.00" arrival="226.00" arrivalLane="end_0" arrivalPos="10.00" arrivalSpeed="9.98" duration="98.00" routeLength="507.80" waitSteps="31" timeLoss="48.26" rerouteNo="0" devices="tripinfo_moped.67" vType="moped" vaporized=""/>
    <tripinfo id="moped.70" depart="136.00" departLane="beg_1" departPos="2.20" departSpeed="0.00" departDelay="66.00" arrival="226.00" arrivalLane="end_1" arrivalPos="10.00" arrivalSpeed="9.46" duration="90.00" routeLength="507.80" waitSteps="33" timeLoss="55.41" rerouteNo="0" devices="tripinfo_moped.70" vType="moped" vaporized=""/>
    <tripinfo id="moped.75" depart="146.00" departLane="beg_0" departPos="2.20" departSpeed="0.00" departDelay="71.00" arrival="227.00" arrivalLane="end_1" arrivalPos="10.00" arrivalSpeed="9.94" duration="81.00" routeLength="507.80" waitSteps="18" timeLoss="42.23" rerouteNo="0" devices="tripinfo_moped.75" vType="moped" vaporized=""/>
    <tripinfo id="moped.73" depart="142.00" departLane="beg_0" departPos="2.20" departSpeed="0.00" departDelay="69.00" arrival="227.00" arrivalLane="end_1" arrivalPos="10.00" arrivalSpeed="10.18" duration="85.00" routeLength="507.80" waitSteps="29" timeLoss="53.38" rerouteNo="0" devices="tripinfo_moped.73" vType="moped" vaporized=""/>
    <tripinfo id="moped.74" depart="145.00" departLane="beg_1" departPos="2.20" departSpeed="0.00" departDelay="71.00" arrival="227.00" arrivalLane="end_0" arrivalPos="10.00" arrivalSpeed="10.62" duration="82.00" routeLength="507.80" waitSteps="22" timeLoss="38.94" rerouteNo="0" devices="tripinfo_moped.74" vType="moped" vaporized=""/>
    <tripinfo id="moped.72" depart="141.00" departLane="beg_1" departPos="2.20" departSpeed="0.00" departDelay="69.00" arrival="227.00" arrivalLane="end_0" arrivalPos="10.00" arrivalSpeed="10.54" duration="86.00" routeLength="507.80" waitSteps="24" timeLoss="40.68" rerouteNo="0" devices="tripinfo_moped.72" vType="moped" vaporized=""/>
    <tripinfo id="moped.78" depart="153.00" departLane="beg_0" departPos="2.20" departSpeed="0.00" departDelay="75.00" arrival="228.00" arrivalLane="end_0" arrivalPos="10.00" arrivalSpeed="9.98" duration="75.00" routeLength="507.80" waitSteps="18" timeLoss="38.67" rerouteNo="0" devices="tripinfo_moped.78" vType="moped" vaporized=""/>
    <tripinfo id="moped.81" depart="159.00" departLane="beg_0" departPos="2.20" departSpeed="0.00" departDelay="78.00" arrival="228.00" arrivalLane="end_0" arrivalPos="10.00" arrivalSpeed="10.40" duration="69.00" routeLength="507.80" waitSteps="13" timeLoss="31.95" rerouteNo="0" devices="tripinfo_moped.81" vType="moped" vaporized=""/>
    <tripinfo id="moped.79" depart="156.00" departLane="beg_1" departPos="2.20" departSpeed="0.00" departDelay="77.00" arrival="228.00" arrivalLane="end_1" arrivalPos="10.00" arrivalSpeed="10.57" duration="72.00" routeLength="507.80" waitSteps="18" timeLoss="40.88" rerouteNo="0" devices="tripinfo_moped.79" vType="moped" vaporized=""/>
    <tripinfo id="moped.83" depart="162.00" departLane="beg_1" departPos="2.20" departSpeed="0.00" departDelay="79.00" arrival="228.00" arrivalLane="end_1" arrivalPos="10.00" arrivalSpeed="9.69" duration="66.00" routeLength="507.80" waitSteps="6" timeLoss="25.38" rerouteNo="0" devices="tripinfo_moped.83" vType="moped" vaporized=""/>
    <tripinfo id="moped.82" depart="159.00" departLane="beg_1" departPos="2.20" departSpeed="0.00" departDelay="77.00" arrival="229.00" arrivalLane="end_1" arrivalPos="10.00" arrivalSpeed="10.75" duration="70.00" routeLength="507.80" waitSteps="13" timeLoss="34.59" rerouteNo="0" devices="tripinfo_moped.82" vType="moped" vaporized=""/>
    <tripinfo id="moped.77" depart="150.00" departLane="beg_1" departPos="2.20" departSpeed="0.00" departDelay="73.00" arrival="229.00" arrivalLane="end_1" arrivalPos="10.00" arrivalSpeed="10.99" duration="79.00" routeLength="507.80" waitSteps="20" timeLoss="40.02" rerouteNo="0" devices="tripinfo_moped.77" vType="moped" vaporized=""/>
    <tripinfo id="moped.76" depart="149.00" departLane="beg_0" departPos="2.20" departSpeed="0.00" departDelay="73.00" arrival="229.00" arrivalLane="end_0" arrivalPos="10.00" arrivalSpeed="10.83" duration="80.00" routeLength="507.80" waitSteps="22" timeLoss="45.95" rerouteNo="0" devices="tripinfo_moped.76" vType="moped" vaporized=""/>
    <tripinfo id="moped.80" depart="156.00" departLane="beg_0" departPos="2.20" departSpeed="0.00" departDelay="76.00" arrival="229.00" arrivalLane="end_0" arrivalPos="10.00" arrivalSpeed="9.87" duration="73.00" routeLength="507.80" waitSteps="17" timeLoss="39.73" rerouteNo="0" devices="tripinfo_moped.80" vType="moped" vaporized=""/>
    <tripinfo id="moped.84" depart="162.00" departLane="beg_0" departPos="2.20" departSpeed="0.00" departDelay="78.00" arrival="230.00" arrivalLane="end_0" arrivalPos="10.00" arrivalSpeed="10.77" duration="68.00" routeLength="507.80" waitSteps="14" timeLoss="36.97" rerouteNo="0" devices="tripinfo_moped.84" vType="moped" vaporized=""/>
    <tripinfo id="moped.85" depart="166.00" departLane="beg_0" departPos="2.20" departSpeed="0.00" departDelay="81.00" arrival="230.00" arrivalLane="end_0" arrivalPos="10.00" arrivalSpeed="10.86" duration="64.00" routeLength="507.80" waitSteps="6" timeLoss="24.20" rerouteNo="0" devices="tripinfo_moped.85" vType="moped" vaporized=""/>