<?xml version="1.0" encoding="UTF-8"?>

<!-- generated on Wed Feb 17 12:58:49 2016 by SUMO Version dev-SVN-r19996
<?xml version="1.0" encoding="UTF-8"?>

<configuration xmlns:xsi="http://www.w3.org/2001/XMLSchema-instance" xsi:noNamespaceSchemaLocation="http://sumo.dlr.de/xsd/sumoConfiguration.xsd">

    <input>
        <net-file value="net.net.xml"/>
        <route-files value="input_routes.rou.xml"/>
    </input>

    <output>
        <tripinfo-output value="tripinfos.xml"/>
    </output>

    <processing>
        <lateral-resolution value="1.1"/>
    </processing>

    <report>
        <xml-validation value="never"/>
        <no-step-log value="true"/>
    </report>

</configuration>
-->

<tripinfos xmlns:xsi="http://www.w3.org/2001/XMLSchema-instance" xsi:noNamespaceSchemaLocation="http://sumo.dlr.de/xsd/tripinfo_file.xsd">
    <tripinfo id="moped.0" depart="0.00" departLane="beg_0" departPos="2.20" departSpeed="0.00" departDelay="0.00" arrival="204.00" arrivalLane="end_0" arrivalPos="10.00" arrivalSpeed="4.49" duration="204.00" routeLength="507.80" waitSteps="158" timeLoss="172.84" rerouteNo="0" devices="tripinfo_moped.0" vType="moped" vaporized=""/>
    <tripinfo id="moped.2" depart="2.00" departLane="beg_0" departPos="2.20" departSpeed="0.00" departDelay="0.00" arrival="204.00" arrivalLane="end_0" arrivalPos="10.00" arrivalSpeed="4.61" duration="202.00" routeLength="507.80" waitSteps="152" timeLoss="166.34" rerouteNo="0" devices="tripinfo_moped.2" vType="moped" vaporized=""/>
    <tripinfo id="moped.4" depart="4.00" departLane="beg_0" departPos="2.20" departSpeed="0.00" departDelay="0.00" arrival="204.00" arrivalLane="end_0" arrivalPos="10.00" arrivalSpeed="4.01" duration="200.00" routeLength="507.80" waitSteps="150" timeLoss="166.42" rerouteNo="0" devices="tripinfo_moped.4" vType="moped" vaporized=""/>
    <tripinfo id="moped.1" depart="1.00" departLane="beg_1" departPos="2.20" departSpeed="0.00" departDelay="0.00" arrival="204.00" arrivalLane="end_1" arrivalPos="10.00" arrivalSpeed="4.48" duration="203.00" routeLength="507.80" waitSteps="146" timeLoss="157.86" rerouteNo="0" devices="tripinfo_moped.1" vType="moped" vaporized=""/>
    <tripinfo id="moped.6" depart="7.00" departLane="beg_1" departPos="2.20" departSpeed="0.00" departDelay="1.00" arrival="204.00" arrivalLane="end_1" arrivalPos="10.00" arrivalSpeed="4.09" duration="197.00" routeLength="507.80" waitSteps="149" timeLoss="164.76" rerouteNo="0" devices="tripinfo_moped.6" vType="moped" vaporized=""/>
    <tripinfo id="moped.11" depart="13.00" departLane="beg_1" departPos="2.20" departSpeed="0.00" departDelay="2.00" arrival="204.00" arrivalLane="end_1" arrivalPos="10.00" arrivalSpeed="3.73" duration="191.00" routeLength="507.80" waitSteps="140" timeLoss="157.07" rerouteNo="0" devices="tripinfo_moped.11" vType="moped" vaporized=""/>
    <tripinfo id="moped.3" depart="4.00" departLane="beg_1" departPos="2.20" departSpeed="0.00" departDelay="1.00" arrival="206.00" arrivalLane="end_1" arrivalPos="10.00" arrivalSpeed="5.20" duration="202.00" routeLength="507.80" waitSteps="144" timeLoss="171.37" rerouteNo="0" devices="tripinfo_moped.3" vType="moped" vaporized=""/>
    <tripinfo id="moped.10" depart="12.00" departLane="beg_0" departPos="2.20" departSpeed="0.00" departDelay="2.00" arrival="206.00" arrivalLane="end_0" arrivalPos="10.00" arrivalSpeed="4.78" duration="194.00" routeLength="507.80" waitSteps="140" timeLoss="163.41" rerouteNo="0" devices="tripinfo_moped.10" vType="moped" vaporized=""/>
    <tripinfo id="moped.15" depart="19.00" departLane="beg_1" departPos="2.20" departSpeed="0.00" departDelay="4.00" arrival="207.00" arrivalLane="end_1" arrivalPos="10.00" arrivalSpeed="5.51" duration="188.00" routeLength="507.80" waitSteps="127" timeLoss="140.65" rerouteNo="0" devices="tripinfo_moped.15" vType="moped" vaporized=""/>
    <tripinfo id="moped.13" depart="16.00" departLane="beg_1" departPos="2.20" departSpeed="0.00" departDelay="3.00" arrival="207.00" arrivalLane="end_1" arrivalPos="10.00" arrivalSpeed="5.28" duration="191.00" routeLength="507.80" waitSteps="144" timeLoss="160.23" rerouteNo="0" devices="tripinfo_moped.13" vType="moped" vaporized=""/>
    <tripinfo id="moped.12" depart="15.00" departLane="beg_0" departPos="2.20" departSpeed="0.00" departDelay="3.00" arrival="207.00" arrivalLane="end_0" arrivalPos="10.00" arrivalSpeed="4.98" duration="192.00" routeLength="507.80" waitSteps="131" timeLoss="159.70" rerouteNo="0" devices="tripinfo_moped.12" vType="moped" vaporized=""/>
    <tripinfo id="moped.8" depart="9.00" departLane="beg_0" departPos="2.20" departSpeed="0.00" departDelay="1.00" arrival="207.00" arrivalLane="end_0" arrivalPos="10.00" arrivalSpeed="5.13" duration="198.00" routeLength="507.80" waitSteps="138" timeLoss="152.77" rerouteNo="0" devices="tripinfo_moped.8" vType="moped" vaporized=""/>
    <tripinfo id="moped.9" depart="10.00" departLane="beg_1" departPos="2.20" departSpeed="0.00" departDelay="1.00" arrival="208.00" arrivalLane="end_1" arrivalPos="10.00" arrivalSpeed="5.50" duration="198.00" routeLength="507.80" waitSteps="122" timeLoss="133.76" rerouteNo="0" devices="tripinfo_moped.9" vType="moped" vaporized=""/>
    <tripinfo id="moped.20" depart="27.00" departLane="beg_0" departPos="2.20" departSpeed="0.00" departDelay="7.00" arrival="209.00" arrivalLane="end_0" arrivalPos="10.00" arrivalSpeed="6.10" duration="182.00" routeLength="507.80" waitSteps="125" timeLoss="146.89" rerouteNo="0" devices="tripinfo_moped.20" vType="moped" vaporized=""/>
    <tripinfo id="moped.7" depart="8.00" departLane="beg_0" departPos="2.20" departSpeed="0.00" departDelay="1.00" arrival="209.00" arrivalLane="end_0" arrivalPos="10.00" arrivalSpeed="6.41" duration="201.00" routeLength="507.80" waitSteps="131" timeLoss="144.81" rerouteNo="0" devices="tripinfo_moped.7" vType="moped" vaporized=""/>
    <tripinfo id="moped.14" depart="18.00" departLane="beg_0" departPos="2.20" departSpeed="0.00" departDelay="4.00" arrival="209.00" arrivalLane="end_0" arrivalPos="10.00" arrivalSpeed="5.11" duration="191.00" routeLength="507.80" waitSteps="137" timeLoss="153.34" rerouteNo="0" devices="tripinfo_moped.14" vType="moped" vaporized=""/>
    <tripinfo id="moped.22" depart="32.00" departLane="beg_1" departPos="2.20" departSpeed="0.00" departDelay="10.00" arrival="209.00" arrivalLane="end_1" arrivalPos="10.00" arrivalSpeed="6.58" duration="177.00" routeLength="507.80" waitSteps="119" timeLoss="136.93" rerouteNo="0" devices="tripinfo_moped.22" vType="moped" vaporized=""/>
    <tripinfo id="moped.19" depart="26.00" departLane="beg_1" departPos="2.20" departSpeed="0.00" departDelay="7.00" arrival="209.00" arrivalLane="end_1" arrivalPos="10.00" arrivalSpeed="5.87" duration="183.00" routeLength="507.80" waitSteps="130" timeLoss="152.18" rerouteNo="0" devices="tripinfo_moped.19" vType="moped" vaporized=""/>
    <tripinfo id="moped.27" depart="38.00" departLane="beg_1" departPos="2.20" departSpeed="0.00" departDelay="11.00" arrival="210.00" arrivalLane="end_1" arrivalPos="10.00" arrivalSpeed="6.48" duration="172.00" routeLength="507.80" waitSteps="113" timeLoss="128.62" rerouteNo="0" devices="tripinfo_moped.27" vType="moped" vaporized=""/>
    <tripinfo id="moped.16" depart="22.00" departLane="beg_1" departPos="2.20" departSpeed="0.00" departDelay="6.00" arrival="210.00" arrivalLane="end_1" arrivalPos="10.00" arrivalSpeed="5.77" duration="188.00" routeLength="507.80" waitSteps="118" timeLoss="130.37" rerouteNo="0" devices="tripinfo_moped.16" vType="moped" vaporized=""/>
    <tripinfo id="moped.21" depart="31.00" departLane="beg_0" departPos="2.20" departSpeed="0.00" departDelay="10.00" arrival="211.00" arrivalLane="end_1" arrivalPos="10.00" arrivalSpeed="6.65" duration="180.00" routeLength="507.80" waitSteps="119" timeLoss="144.10" rerouteNo="0" devices="tripinfo_moped.21" vType="moped" vaporized=""/>
    <tripinfo id="moped.5" depart="6.00" departLane="beg_0" departPos="2.20" departSpeed="0.00" departDelay="1.00" arrival="211.00" arrivalLane="end_0" arrivalPos="10.00" arrivalSpeed="6.58" duration="205.00" routeLength="507.80" waitSteps="114" timeLoss="130.03" rerouteNo="0" devices="tripinfo_moped.5" vType="moped" vaporized=""/>
    <tripinfo id="moped.18" depart="26.00" departLane="beg_0" departPos="2.20" departSpeed="0.00" departDelay="8.00" arrival="211.00" arrivalLane="end_0" arrivalPos="10.00" arrivalSpeed="6.21" duration="185.00" routeLength="507.80" waitSteps="124" timeLoss="139.48" rerouteNo="0" devices="tripinfo_moped.18" vType="moped" vaporized=""/>
    <tripinfo id="moped.26" depart="35.00" departLane="beg_0" departPos="2.20" departSpeed="0.00" departDelay="9.00" arrival="211.00" arrivalLane="end_0" arrivalPos="10.00" arrivalSpeed="6.25" duration="176.00" routeLength="507.80" waitSteps="113" timeLoss="127.25" rerouteNo="0" devices="tripinfo_moped.26" vType="moped" vaporized=""/>
    <tripinfo id="moped.32" depart="42.00" departLane="beg_0" departPos="2.20" departSpeed="0.00" departDelay="10.00" arrival="212.00" arrivalLane="end_0" arrivalPos="10.00" arrivalSpeed="6.42" duration="170.00" routeLength="507.80" waitSteps="114" timeLoss="134.49" rerouteNo="0" devices="tripinfo_moped.32" vType="moped" vaporized=""/>
    <tripinfo id="moped.28" depart="38.00" departLane="beg_0" departPos="2.20" departSpeed="0.00" departDelay="10.00" arrival="212.00" arrivalLane="end_1" arrivalPos="10.00" arrivalSpeed="6.87" duration="174.00" routeLength="507.80" waitSteps="113" timeLoss="143.30" rerouteNo="0" devices="tripinfo_moped.28" vType="moped" vaporized=""/>
    <tripinfo id="moped.29" depart="38.00" departLane="beg_1" departPos="2.20" departSpeed="0.00" departDelay="9.00" arrival="212.00" arrivalLane="end_1" arrivalPos="10.00" arrivalSpeed="6.86" duration="174.00" routeLength="507.80" waitSteps="113" timeLoss="127.77" rerouteNo="0" devices="tripinfo_moped.29" vType="moped" vaporized=""/>
    <tripinfo id="moped.17" depart="22.00" departLane="beg_0" departPos="2.20" departSpeed="0.00" departDelay="5.00" arrival="213.00" arrivalLane="end_0" arrivalPos="10.00" arrivalSpeed="7.08" duration="191.00" routeLength="507.80" waitSteps="127" timeLoss="146.16" rerouteNo="0" devices="tripinfo_moped.17" vType="moped" vaporized=""/>
    <tripinfo id="moped.35" depart="49.00" departLane="beg_0" departPos="2.20" departSpeed="0.00" departDelay="14.00" arrival="213.00" arrivalLane="end_0" arrivalPos="10.00" arrivalSpeed="6.96" duration="164.00" routeLength="507.80" waitSteps="111" timeLoss="129.24" rerouteNo="0" devices="tripinfo_moped.35" vType="moped" vaporized=""/>
    <tripinfo id="moped.30" depart="42.00" departLane="beg_1" departPos="2.20" departSpeed="0.00" departDelay="12.00" arrival="213.00" arrivalLane="end_1" arrivalPos="10.00" arrivalSpeed="6.89" duration="171.00" routeLength="507.80" waitSteps="115" timeLoss="140.14" rerouteNo="0" devices="tripinfo_moped.30" vType="moped" vaporized=""/>
    <tripinfo id="moped.37" depart="49.00" departLane="beg_1" departPos="2.20" departSpeed="0.00" departDelay="12.00" arrival="214.00" arrivalLane="end_1" arrivalPos="10.00" arrivalSpeed="7.90" duration="165.00" routeLength="507.80" waitSteps="112" timeLoss="134.16" rerouteNo="0" devices="tripinfo_moped.37" vType="moped" vaporized=""/>
    <tripinfo id="moped.33" depart="45.00" departLane="beg_1" departPos="2.20" departSpeed="0.00" departDelay="12.00" arrival="214.00" arrivalLane="end_1" arrivalPos="10.00" arrivalSpeed="6.89" duration="169.00" routeLength="507.80" waitSteps="112" timeLoss="138.44" rerouteNo="0" devices="tripinfo_moped.33" vType="moped" vaporized=""/>
    <tripinfo id="moped.31" depart="42.00" departLane="beg_0" departPos="2.20" departSpeed="0.00" departDelay="11.00" arrival="215.00" arrivalLane="end_1" arrivalPos="10.00" arrivalSpeed="7.58" duration="173.00" routeLength="507.80" waitSteps="114" timeLoss="142.31" rerouteNo="0" devices="tripinfo_moped.31" vType="moped" vaporized=""/>
    <tripinfo id="moped.42" depart="56.00" departLane="beg_1" departPos="2.20" departSpeed="0.00" departDelay="14.00" arrival="215.00" arrivalLane="end_1" arrivalPos="10.00" arrivalSpeed="8.06" duration="159.00" routeLength="507.80" waitSteps="108" timeLoss="129.00" rerouteNo="0" devices="tripinfo_moped.42" vType="moped" vaporized=""/>
    <tripinfo id="moped.23" depart="34.00" departLane="beg_0" departPos="2.20" departSpeed="0.00" departDelay="11.00" arrival="215.00" arrivalLane="end_0" arrivalPos="10.00" arrivalSpeed="7.84" duration="181.00" routeLength="507.80" waitSteps="110" timeLoss="125.53" rerouteNo="0" devices="tripinfo_moped.23" vType="moped" vaporized=""/>
    <tripinfo id="moped.34" depart="45.00" departLane="beg_0" departPos="2.20" departSpeed="0.00" departDelay="11.00" arrival="215.00" arrivalLane="end_0" arrivalPos="10.00" arrivalSpeed="7.03" duration="170.00" routeLength="507.80" waitSteps="111" timeLoss="132.58" rerouteNo="0" devices="tripinfo_moped.34" vType="moped" vaporized=""/>
    <tripinfo id="moped.43" depart="56.00" departLane="beg_0" departPos="2.20" departSpeed="0.00" departDelay="13.00" arrival="215.00" arrivalLane="end_0" arrivalPos="10.00" arrivalSpeed="7.05" duration="159.00" routeLength="507.80" waitSteps="104" timeLoss="126.09" rerouteNo="0" devices="tripinfo_moped.43" vType="moped" vaporized=""/>
    <tripinfo id="moped.38" depart="50.00" departLane="beg_1" departPos="2.20" departSpeed="0.00" departDelay="12.00" arrival="216.00" arrivalLane="end_1" arrivalPos="10.00" arrivalSpeed="7.30" duration="166.00" routeLength="507.80" waitSteps="110" timeLoss="135.32" rerouteNo="0" devices="tripinfo_moped.38" vType="moped" vaporized=""/>
    <tripinfo id="moped.44" depart="60.00" departLane="beg_1" departPos="2.20" departSpeed="0.00" departDelay="16.00" arrival="217.00" arrivalLane="end_1" arrivalPos="10.00" arrivalSpeed="7.45" duration="157.00" routeLength="507.80" waitSteps="99" timeLoss="124.41" rerouteNo="0" devices="tripinfo_moped.44" vType="moped" vaporized=""/>
    <tripinfo id="moped.25" depart="34.00" departLane="beg_0" departPos="2.20" departSpeed="0.00" departDelay="9.00" arrival="217.00" arrivalLane="end_0" arrivalPos="10.00" arrivalSpeed="8.19" duration="183.00" routeLength="507.80" waitSteps="108" timeLoss="123.02" rerouteNo="0" devices="tripinfo_moped.25" vType="moped" vaporized=""/>
    <tripinfo id="moped.40" depart="54.00" departLane="beg_0" departPos="2.20" departSpeed="0.00" departDelay="14.00" arrival="217.00" arrivalLane="end_0" arrivalPos="10.00" arrivalSpeed="8.11" duration="163.00" routeLength="507.80" waitSteps="109" timeLoss="129.04" rerouteNo="0" devices="tripinfo_moped.40" vType="moped" vaporized=""/>
    <tripinfo id="moped.36" depart="49.00" departLane="beg_0" departPos="2.20" departSpeed="0.00" departDelay="13.00" arrival="217.00" arrivalLane="end_0" arrivalPos="10.00" arrivalSpeed="7.51" duration="168.00" routeLength="507.80" waitSteps="104" timeLoss="128.01" rerouteNo="0" devices="tripinfo_moped.36" vType="moped" vaporized=""/>
    <tripinfo id="moped.41" depart="54.00" departLane="beg_1" departPos="2.20" departSpeed="0.00" departDelay="13.00" arrival="218.00" arrivalLane="end_1" arrivalPos="10.00" arrivalSpeed="7.89" duration="164.00" routeLength="507.80" waitSteps="105" timeLoss="121.72" rerouteNo="0" devices="tripinfo_moped.41" vType="moped" vaporized=""/>
    <tripinfo id="moped.53" depart="76.00" departLane="beg_1" departPos="2.20" departSpeed="0.00" departDelay="23.00" arrival="218.00" arrivalLane="end_1" arrivalPos="10.00" arrivalSpeed="8.67" duration="142.00" routeLength="507.80" waitSteps="90" timeLoss="111.31" rerouteNo="0" devices="tripinfo_moped.53" vType="moped" vaporized=""/>
    <tripinfo id="moped.45" depart="60.00" departLane="beg_0" departPos="2.20" departSpeed="0.00" departDelay="15.00" arrival="219.00" arrivalLane="end_0" arrivalPos="10.00" arrivalSpeed="8.45" duration="159.00" routeLength="507.80" waitSteps="103" timeLoss="128.06" rerouteNo="0" devices="tripinfo_moped.45" vType="moped" vaporized=""/>
    <tripinfo id="moped.46" depart="64.00" departLane="beg_0" departPos="2.20" departSpeed="0.00" departDelay="18.00" arrival="219.00" arrivalLane="end_0" arrivalPos="10.00" arrivalSpeed="8.21" duration="155.00" routeLength="507.80" waitSteps="97" timeLoss="117.78" rerouteNo="0" devices="tripinfo_moped.46" vType="moped" vaporized=""/>
    <tripinfo id="moped.39" depart="54.00" departLane="beg_0" departPos="2.20" departSpeed="0.00" departDelay="15.00" arrival="219.00" arrivalLane="end_0" arrivalPos="10.00" arrivalSpeed="7.92" duration="165.00" routeLength="507.80" waitSteps="98" timeLoss="112.71" rerouteNo="0" devices="tripinfo_moped.39" vType="moped" vaporized=""/>
    <tripinfo id="moped.24" depart="34.00" departLane="beg_1" departPos="2.20" departSpeed="0.00" departDelay="10.00" arrival="219.00" arrivalLane="end_1" arrivalPos="10.00" arrivalSpeed="6.47" duration="185.00" routeLength="507.80" waitSteps="95" timeLoss="107.84" rerouteNo="0" devices="tripinfo_moped.24" vType="moped" vaporized=""/>
    <tripinfo id="moped.47" depart="67.00" departLane="beg_1" departPos="2.20" departSpeed="0.00" departDelay="20.00" arrival="220.00" arrivalLane="end_1" arrivalPos="10.00" arrivalSpeed="9.16" duration="153.00" routeLength="507.80" waitSteps="84" timeLoss="100.10" rerouteNo="0" devices="tripinfo_moped.47" vType="moped" vaporized=""/>
    <tripinfo id="moped.54" depart="77.00" departLane="beg_1" departPos="2.20" departSpeed="0.00" departDelay="23.00" arrival="220.00" arrivalLane="end_1" arrivalPos="10.00" arrivalSpeed="8.03" duration="143.00" routeLength="507.80" waitSteps="83" timeLoss="106.72" rerouteNo="0" devices="tripinfo_moped.54" vType="moped" vaporized=""/>
    <tripinfo id="moped.55" depart="78.00" departLane="beg_0" departPos="2.20" departSpeed="0.00" departDelay="23.00" arrival="220.00" arrivalLane="end_0" arrivalPos="10.00" arrivalSpeed="8.50" duration="142.00" routeLength="507.80" waitSteps="82" timeLoss="104.85" rerouteNo="0" devices="tripinfo_moped.55" vType="moped" vaporized=""/>
    <tripinfo id="moped.51" depart="73.00" departLane="beg_1" departPos="2.20" departSpeed="0.00" departDelay="22.00" arrival="221.00" arrivalLane="end_1" arrivalPos="10.00" arrivalSpeed="8.96" duration="148.00" routeLength="507.80" waitSteps="95" timeLoss="116.99" rerouteNo="0" devices="tripinfo_moped.51" vType="moped" vaporized=""/>
    <tripinfo id="moped.60" depart="84.00" departLane="beg_1" departPos="2.20" departSpeed="0.00" departDelay="24.00" arrival="221.00" arrivalLane="end_1" arrivalPos="10.00" arrivalSpeed="9.21" duration="137.00" routeLength="507.80" waitSteps="83" timeLoss="106.40" rerouteNo="0" devices="tripinfo_moped.60" vType="moped" vaporized=""/>
    <tripinfo id="moped.48" depart="67.00" departLane="beg_0" departPos="2.20" departSpeed="0.00" departDelay="19.00" arrival="221.00" arrivalLane="end_0" arrivalPos="10.00" arrivalSpeed="8.41" duration="154.00" routeLength="507.80" waitSteps="76" timeLoss="95.19" rerouteNo="0" devices="tripinfo_moped.48" vType="moped" vaporized=""/>
    <tripinfo id="moped.52" depart="74.00" departLane="beg_0" departPos="2.20" departSpeed="0.00" departDelay="22.00" arrival="221.00" arrivalLane="end_0" arrivalPos="10.00" arrivalSpeed="8.25" duration="147.00" routeLength="507.80" waitSteps="91" timeLoss="111.85" rerouteNo="0" devices="tripinfo_moped.52" vType="moped" vaporized=""/>
    <tripinfo id="moped.58" depart="83.00" departLane="beg_0" departPos="2.20" departSpeed="0.00" departDelay="25.00" arrival="222.00" arrivalLane="end_0" arrivalPos="10.00" arrivalSpeed="9.21" duration="139.00" routeLength="507.80" waitSteps="76" timeLoss="104.41" rerouteNo="0" devices="tripinfo_moped.58" vType="moped" vaporized=""/>
    <tripinfo id="moped.56" depart="79.00" departLane="beg_1" departPos="2.20" departSpeed="0.00" departDelay="23.00" arrival="222.00" arrivalLane="end_1" arrivalPos="10.00" arrivalSpeed="8.98" duration="143.00" routeLength="507.80" waitSteps="73" timeLoss="90.06" rerouteNo="0" devices="tripinfo_moped.56" vType="moped" vaporized=""/>
    <tripinfo id="moped.61" depart="87.00" departLane="beg_1" departPos="2.20" departSpeed="0.00" departDelay="26.00" arrival="222.00" arrivalLane="end_1" arrivalPos="10.00" arrivalSpeed="8.84" duration="135.00" routeLength="507.80" waitSteps="76" timeLoss="104.38" rerouteNo="0" devices="tripinfo_moped.61" vType="moped" vaporized=""/>
    <tripinfo id="moped.49" depart="70.00" departLane="beg_0" departPos="2.20" departSpeed="0.00" departDelay="21.00" arrival="223.00" arrivalLane="end_0" arrivalPos="10.00" arrivalSpeed="7.65" duration="153.00" routeLength="507.80" waitSteps="73" timeLoss="85.77" rerouteNo="0" devices="tripinfo_moped.49" vType="moped" vaporized=""/>
    <tripinfo id="moped.57" depart="82.00" departLane="beg_0" departPos="2.20" departSpeed="0.00" departDelay="25.00" arrival="223.00" arrivalLane="end_0" arrivalPos="10.00" arrivalSpeed="8.81" duration="141.00" routeLength="507.80" waitSteps="82" timeLoss="110.05" rerouteNo="0" devices="tripinfo_moped.57" vType="moped" vaporized=""/>
    <tripinfo id="moped.62" depart="90.00" departLane="beg_0" departPos="2.20" departSpeed="0.00" departDelay="28.00" arrival="224.00" arrivalLane="end_0" arrivalPos="10.00" arrivalSpeed="9.93" duration="134.00" routeLength="507.80" waitSteps="73" timeLoss="98.51" rerouteNo="0" devices="tripinfo_moped.62" vType="moped" vaporized=""/>
    <tripinfo id="moped.63" depart="90.00" departLane="beg_0" departPos="2.20" departSpeed="0.00" departDelay="27.00" arrival="224.00" arrivalLane="end_0" arrivalPos="10.00" arrivalSpeed="9.00" duration="134.00" routeLength="507.80" waitSteps="77" timeLoss="95.71" rerouteNo="0" devices="tripinfo_moped.63" vType="moped" vaporized=""/>
    <tripinfo id="moped.70" depart="100.00" departLane="beg_0" departPos="2.20" departSpeed="0.00" departDelay="30.00" arrival="224.00" arrivalLane="end_0" arrivalPos="10.00" arrivalSpeed="8.24" duration="124.00" routeLength="507.80" waitSteps="66" timeLoss="89.67" rerouteNo="0" devices="tripinfo_moped.70" vType="moped" vaporized=""/>
    <tripinfo id="moped.50" depart="70.00" departLane="beg_1" departPos="2.20" departSpeed="0.00" departDelay="20.00" arrival="224.00" arrivalLane="end_1" arrivalPos="10.00" arrivalSpeed="7.74" duration="154.00" routeLength="507.80" waitSteps="75" timeLoss="88.29" rerouteNo="0" devices="tripinfo_moped.50" vType="moped" vaporized=""/>
    <tripinfo id="moped.68" depart="97.00" departLane="beg_0" departPos="2.20" departSpeed="0.00" departDelay="29.00" arrival="224.00" arrivalLane="end_1" arrivalPos="10.00" arrivalSpeed="9.22" duration="127.00" routeLength="507.80" waitSteps="67" timeLoss="93.95" rerouteNo="0" devices="tripinfo_moped.68" vType="moped" vaporized=""/>
    <tripinfo id="moped.59" depart="83.00" departLane="beg_1" departPos="2.20" departSpeed="0.00" departDelay="24.00" arrival="224.00" arrivalLane="end_1" arrivalPos="10.00" arrivalSpeed="8.47" duration="141.00" routeLength="507.80" waitSteps="75" timeLoss="100.48" rerouteNo="0" devices="tripinfo_moped.59" vType="moped" vaporized=""/>
    <tripinfo id="moped.67" depart="96.00" departLane="beg_1" departPos="2.20" departSpeed="0.00" departDelay="29.00" arrival="225.00" arrivalLane="end_1" arrivalPos="10.00" arrivalSpeed="8.23" duration="129.00" routeLength="507.80" waitSteps="63" timeLoss="79.51" rerouteNo="0" devices="tripinfo_moped.67" vType="moped" vaporized=""/>
    <tripinfo id="moped.66" depart="94.00" departLane="beg_0" departPos="2.20" departSpeed="0.00" departDelay="28.00" arrival="225.00" arrivalLane="end_0" arrivalPos="10.00" arrivalSpeed="9.37" duration="131.00" routeLength="507.80" waitSteps="64" timeLoss="80.05" rerouteNo="0" devices="tripinfo_moped.66" vType="moped" vaporized=""/>
    <tripinfo id="moped.73" depart="103.00" departLane="beg_0" departPos="2.20" departSpeed="0.00" departDelay="30.00" arrival="226.00" arrivalLane="end_0" arrivalPos="10.00" arrivalSpeed="9.45" duration="123.00" routeLength="507.80" waitSteps="67" timeLoss="91.25" rerouteNo="0" devices="tripinfo_moped.73" vType="moped" vaporized=""/>
    <tripinfo id="moped.72" depart="102.00" departLane="beg_0" departPos="2.20" departSpeed="0.00" departDelay="30.00" arrival="226.00" arrivalLane="end_0" arrivalPos="10.00" arrivalSpeed="9.02" duration="124.00" routeLength="507.80" waitSteps="61" timeLoss="78.93" rerouteNo="0" devices="tripinfo_moped.72" vType="moped" vaporized=""/>
    <tripinfo id="moped.64" depart="90.00" departLane="beg_1" departPos="2.20" departSpeed="0.00" departDelay="26.00" arrival="226.00" arrivalLane="end_1" arrivalPos="10.00" arrivalSpeed="10.33" duration="136.00" routeLength="507.80" waitSteps="72" timeLoss="90.18" rerouteNo="0" devices="tripinfo_moped.64" vType="moped" vaporized=""/>
    <tripinfo id="moped.65" depart="93.00" departLane="beg_1" departPos="2.20" departSpeed="0.00" departDelay="28.00" arrival="226.00" arrivalLane="end_1" arrivalPos="10.00" arrivalSpeed="8.85" duration="133.00" routeLength="507.80" waitSteps="60" timeLoss="75.63" rerouteNo="0" devices="tripinfo_moped.65" vType="moped" vaporized=""/>
    <tripinfo id="moped.75" depart="105.00" departLane="beg_1" departPos="2.20" departSpeed="0.00" departDelay="30.00" arrival="227.00" arrivalLane="end_1" arrivalPos="10.00" arrivalSpeed="9.64" duration="122.00" routeLength="507.80" waitSteps="62" timeLoss="83.05" rerouteNo="0" devices="tripinfo_moped.75" vType="moped" vaporized=""/>
    <tripinfo id="moped.71" depart="101.00" departLane="beg_1" departPos="2.20" departSpeed="0.00" departDelay="30.00" arrival="227.00" arrivalLane="end_1" arrivalPos="10.00" arrivalSpeed="10.66" duration="126.00" routeLength="507.80" waitSteps="67" timeLoss="85.99" rerouteNo="0" devices="tripinfo_moped.71" vType="moped" vaporized=""/>
    <tripinfo id="moped.78" depart="109.00" departLane="beg_0" departPos="2.20" departSpeed="0.00" departDelay="31.00" arrival="227.00" arrivalLane="end_0" arrivalPos="10.00" arrivalSpeed="9.90" duration="118.00" routeLength="507.80" waitSteps="63" timeLoss="81.77" rerouteNo="0" devices="tripinfo_moped.78" vType="moped" vaporized=""/>
    <tripinfo id="moped.69" depart="100.00" departLane="beg_1" departPos="2.20" departSpeed="0.00" departDelay="31.00" arrival="227.00" arrivalLane="end_0" arrivalPos="10.00" arrivalSpeed="9.40" duration="127.00" routeLength="507.80" waitSteps="66" timeLoss="92.62" rerouteNo="0" devices="tripinfo_moped.69" vType="moped" vaporized=""/>
    <tripinfo id="moped.80" depart="114.00" departLane="beg_0" departPos="2.20" departSpeed="0.00" departDelay="34.00" arrival="228.00" arrivalLane="end_0" arrivalPos="10.00" arrivalSpeed="10.71" duration="114.00" routeLength="507.80" waitSteps="55" timeLoss="80.14" rerouteNo="0" devices="tripinfo_moped.80" vType="moped" vaporized=""/>
    <tripinfo id="moped.77" depart="107.00" departLane="beg_0" departPos="2.20" departSpeed="0.00" departDelay="30.00" arrival="228.00" arrivalLane="end_0" arrivalPos="10.00" arrivalSpeed="9.93" duration="121.00" routeLength="507.80" waitSteps="65" timeLoss="82.25" rerouteNo="0" devices="tripinfo_moped.77" vType="moped" vaporized=""/>
    <tripinfo id="moped.74" depart="105.00" departLane="beg_1" departPos="2.20" departSpeed="0.00" departDelay="31.00" arrival="228.00" arrivalLane="end_1" arrivalPos="10.00" arrivalSpeed="9.90" duration="123.00" routeLength="507.80" waitSteps="61" timeLoss="80.19" rerouteNo="0" devices="tripinfo_moped.74" vType="moped" vaporized=""/>
    <tripinfo id="moped.79" depart="112.00" departLane="beg_1" departPos="2.20" departSpeed="0.00" departDelay="33.00" arrival="228.00" arrivalLane="end_1" arrivalPos="10.00" arrivalSpeed="9.39" duration="116.00" routeLength="507.80" waitSteps="59" timeLoss="85.34" rerouteNo="0" devices="tripinfo_moped.79" vType="moped" vaporized=""/>
    <tripinfo id="moped.76" depart="106.00" departLane="beg_1" departPos="2.20" departSpeed="0.00" departDelay="30.00" arrival="229.00" arrivalLane="end_1" arrivalPos="10.00" arrivalSpeed="11.32" duration="123.00" routeLength="507.80" waitSteps="68" timeLoss="89.17" rerouteNo="0" devices="tripinfo_moped.76" vType="moped" vaporized=""/>
    <tripinfo id="moped.84" depart="122.00" departLane="beg_1" departPos="2.20" departSpeed="0.00" departDelay="38.00" arrival="229.00" arrivalLane="end_1" arrivalPos="10.00" arrivalSpeed="10.30" duration="107.00" routeLength="507.80" waitSteps="52" timeLoss="76.43" rerouteNo="0" devices="tripinfo_moped.84" vType="moped" vaporized=""/>
    <tripinfo id="moped.83" depart="120.00" departLane="beg_0" departPos="2.20" departSpeed="0.00" departDelay="37.00" arrival="229.00" arrivalLane="end_0" arrivalPos="10.00" arrivalSpeed="10.34" duration="109.00" routeLength="507.80" waitSteps="49" timeLoss="68.09" rerouteNo="0" devices="tripinfo_moped.83" vType="moped" vaporized=""/>
    <tripinfo id="moped.89" depart="130.00" departLane="beg_0" departPos="2.20" departSpeed="0.00" departDelay="41.00" arrival="229.00" arrivalLane="end_0" arrivalPos="10.00" arrivalSpeed="10.29" duration="99.00" routeLength="507.80" waitSteps="44" timeLoss="64.51" rerouteNo="0" devices="tripinfo_moped.89" vType="moped" vaporized=""/>
    <tripinfo id="moped.86" depart="123.00" departLane="beg_0" departPos="2.20" departSpeed="0.00" departDelay="37.00" arrival="230.00" arrivalLane="end_0" arrivalPos="10.00" arrivalSpeed="10.32" duration="107.00" routeLength="507.80" waitSteps="51" timeLoss="70.42" rerouteNo="0" devices="tripinfo_moped.86" vType="moped" vaporized=""/>
    <tripinfo id="moped.82" depart="118.00" departLane="beg_1" departPos="2.20" departSpeed="0.00" departDelay="36.00" arrival="230.00" arrivalLane="end_1" arrivalPos="10.00" arrivalSpeed="10.26" duration="112.00" routeLength="507.80" waitSteps="56" timeLoss="76.61" rerouteNo="0" devices="tripinfo_moped.82" vType="moped" vaporized=""/>