<?xml version="1.0" encoding="UTF-8"?>

<!-- generated on Thu Mar  3 13:54:39 2016 by SUMO Version dev-SVN-r20128
<?xml version="1.0" encoding="UTF-8"?>

<configuration xmlns:xsi="http://www.w3.org/2001/XMLSchema-instance" xsi:noNamespaceSchemaLocation="http://sumo.dlr.de/xsd/sumoConfiguration.xsd">

    <input>
        <net-file value="net.net.xml"/>
        <route-files value="input_routes.rou.xml"/>
    </input>

    <output>
        <tripinfo-output value="tripinfos.xml"/>
    </output>

    <processing>
        <lateral-resolution value="1.1"/>
    </processing>

    <report>
        <xml-validation value="never"/>
        <no-step-log value="true"/>
    </report>

</configuration>
-->

<tripinfos xmlns:xsi="http://www.w3.org/2001/XMLSchema-instance" xsi:noNamespaceSchemaLocation="http://sumo.dlr.de/xsd/tripinfo_file.xsd">
    <tripinfo id="moped.2" depart="2.00" departLane="beg_0" departPos="2.20" departSpeed="0.00" departDelay="0.00" arrival="204.00" arrivalLane="end_0" arrivalPos="10.00" arrivalSpeed="4.94" duration="202.00" routeLength="507.80" waitSteps="152" timeLoss="166.25" rerouteNo="0" devices="tripinfo_moped.2" vType="moped" vaporized=""/>
    <tripinfo id="moped.0" depart="0.00" departLane="beg_0" departPos="2.20" departSpeed="0.00" departDelay="0.00" arrival="204.00" arrivalLane="end_0" arrivalPos="10.00" arrivalSpeed="4.50" duration="204.00" routeLength="507.80" waitSteps="158" timeLoss="172.83" rerouteNo="0" devices="tripinfo_moped.0" vType="moped" vaporized=""/>
    <tripinfo id="moped.4" depart="4.00" departLane="beg_0" departPos="2.20" departSpeed="0.00" departDelay="0.00" arrival="204.00" arrivalLane="end_0" arrivalPos="10.00" arrivalSpeed="3.77" duration="200.00" routeLength="507.80" waitSteps="150" timeLoss="166.35" rerouteNo="0" devices="tripinfo_moped.4" vType="moped" vaporized=""/>
    <tripinfo id="moped.6" depart="7.00" departLane="beg_1" departPos="2.20" departSpeed="0.00" departDelay="1.00" arrival="204.00" arrivalLane="end_1" arrivalPos="10.00" arrivalSpeed="4.45" duration="197.00" routeLength="507.80" waitSteps="149" timeLoss="164.64" rerouteNo="0" devices="tripinfo_moped.6" vType="moped" vaporized=""/>
    <tripinfo id="moped.1" depart="1.00" departLane="beg_1" departPos="2.20" departSpeed="0.00" departDelay="0.00" arrival="204.00" arrivalLane="end_1" arrivalPos="10.00" arrivalSpeed="4.52" duration="203.00" routeLength="507.80" waitSteps="146" timeLoss="157.84" rerouteNo="0" devices="tripinfo_moped.1" vType="moped" vaporized=""/>
    <tripinfo id="moped.11" depart="13.00" departLane="beg_1" departPos="2.20" departSpeed="0.00" departDelay="2.00" arrival="204.00" arrivalLane="end_1" arrivalPos="10.00" arrivalSpeed="4.26" duration="191.00" routeLength="507.80" waitSteps="140" timeLoss="156.97" rerouteNo="0" devices="tripinfo_moped.11" vType="moped" vaporized=""/>
    <tripinfo id="moped.10" depart="12.00" departLane="beg_0" departPos="2.20" departSpeed="0.00" departDelay="2.00" arrival="206.00" arrivalLane="end_0" arrivalPos="10.00" arrivalSpeed="5.00" duration="194.00" routeLength="507.80" waitSteps="140" timeLoss="163.38" rerouteNo="0" devices="tripinfo_moped.10" vType="moped" vaporized=""/>
    <tripinfo id="moped.8" depart="9.00" departLane="beg_0" departPos="2.20" departSpeed="0.00" departDelay="1.00" arrival="206.00" arrivalLane="end_0" arrivalPos="10.00" arrivalSpeed="5.07" duration="197.00" routeLength="507.80" waitSteps="139" timeLoss="151.87" rerouteNo="0" devices="tripinfo_moped.8" vType="moped" vaporized=""/>
    <tripinfo id="moped.12" depart="15.00" departLane="beg_0" departPos="2.20" departSpeed="0.00" departDelay="3.00" arrival="206.00" arrivalLane="end_0" arrivalPos="10.00" arrivalSpeed="4.37" duration="191.00" routeLength="507.80" waitSteps="134" timeLoss="158.90" rerouteNo="0" devices="tripinfo_moped.12" vType="moped" vaporized=""/>
    <tripinfo id="moped.13" depart="16.00" departLane="beg_1" departPos="2.20" departSpeed="0.00" departDelay="3.00" arrival="207.00" arrivalLane="end_1" arrivalPos="10.00" arrivalSpeed="5.29" duration="191.00" routeLength="507.80" waitSteps="144" timeLoss="160.19" rerouteNo="0" devices="tripinfo_moped.13" vType="moped" vaporized=""/>
    <tripinfo id="moped.15" depart="19.00" departLane="beg_1" departPos="2.20" departSpeed="0.00" departDelay="4.00" arrival="207.00" arrivalLane="end_1" arrivalPos="10.00" arrivalSpeed="4.99" duration="188.00" routeLength="507.80" waitSteps="126" timeLoss="140.72" rerouteNo="0" devices="tripinfo_moped.15" vType="moped" vaporized=""/>
    <tripinfo id="moped.3" depart="4.00" departLane="beg_1" departPos="2.20" departSpeed="0.00" departDelay="1.00" arrival="207.00" arrivalLane="end_1" arrivalPos="10.00" arrivalSpeed="4.85" duration="203.00" routeLength="507.80" waitSteps="144" timeLoss="172.26" rerouteNo="0" devices="tripinfo_moped.3" vType="moped" vaporized=""/>
    <tripinfo id="moped.14" depart="18.00" departLane="beg_0" departPos="2.20" departSpeed="0.00" departDelay="4.00" arrival="208.00" arrivalLane="end_0" arrivalPos="10.00" arrivalSpeed="5.84" duration="190.00" routeLength="507.80" waitSteps="136" timeLoss="152.26" rerouteNo="0" devices="tripinfo_moped.14" vType="moped" vaporized=""/>
    <tripinfo id="moped.7" depart="8.00" departLane="beg_0" departPos="2.20" departSpeed="0.00" departDelay="1.00" arrival="208.00" arrivalLane="end_0" arrivalPos="10.00" arrivalSpeed="5.38" duration="200.00" routeLength="507.80" waitSteps="132" timeLoss="144.30" rerouteNo="0" devices="tripinfo_moped.7" vType="moped" vaporized=""/>
    <tripinfo id="moped.5" depart="6.00" departLane="beg_0" departPos="2.20" departSpeed="0.00" departDelay="1.00" arrival="208.00" arrivalLane="end_0" arrivalPos="10.00" arrivalSpeed="5.64" duration="202.00" routeLength="507.80" waitSteps="116" timeLoss="127.75" rerouteNo="0" devices="tripinfo_moped.5" vType="moped" vaporized=""/>
    <tripinfo id="moped.19" depart="26.00" departLane="beg_1" departPos="2.20" departSpeed="0.00" departDelay="7.00" arrival="209.00" arrivalLane="end_1" arrivalPos="10.00" arrivalSpeed="5.87" duration="183.00" routeLength="507.80" waitSteps="129" timeLoss="152.21" rerouteNo="0" devices="tripinfo_moped.19" vType="moped" vaporized=""/>
    <tripinfo id="moped.22" depart="32.00" departLane="beg_1" departPos="2.20" departSpeed="0.00" departDelay="10.00" arrival="209.00" arrivalLane="end_1" arrivalPos="10.00" arrivalSpeed="5.77" duration="177.00" routeLength="507.80" waitSteps="120" timeLoss="137.09" rerouteNo="0" devices="tripinfo_moped.22" vType="moped" vaporized=""/>
    <tripinfo id="moped.9" depart="10.00" departLane="beg_1" departPos="2.20" departSpeed="0.00" departDelay="1.00" arrival="209.00" arrivalLane="end_1" arrivalPos="10.00" arrivalSpeed="5.65" duration="199.00" routeLength="507.80" waitSteps="121" timeLoss="134.42" rerouteNo="0" devices="tripinfo_moped.9" vType="moped" vaporized=""/>
    <tripinfo id="moped.20" depart="27.00" departLane="beg_0" departPos="2.20" departSpeed="0.00" departDelay="7.00" arrival="210.00" arrivalLane="end_0" arrivalPos="10.00" arrivalSpeed="5.98" duration="183.00" routeLength="507.80" waitSteps="132" timeLoss="148.21" rerouteNo="0" devices="tripinfo_moped.20" vType="moped" vaporized=""/>
    <tripinfo id="moped.18" depart="26.00" departLane="beg_0" departPos="2.20" departSpeed="0.00" departDelay="8.00" arrival="211.00" arrivalLane="end_0" arrivalPos="10.00" arrivalSpeed="6.92" duration="185.00" routeLength="507.80" waitSteps="124" timeLoss="139.16" rerouteNo="0" devices="tripinfo_moped.18" vType="moped" vaporized=""/>
    <tripinfo id="moped.17" depart="22.00" departLane="beg_0" departPos="2.20" departSpeed="0.00" departDelay="5.00" arrival="211.00" arrivalLane="end_0" arrivalPos="10.00" arrivalSpeed="6.53" duration="189.00" routeLength="507.80" waitSteps="121" timeLoss="144.14" rerouteNo="0" devices="tripinfo_moped.17" vType="moped" vaporized=""/>
    <tripinfo id="moped.16" depart="22.00" departLane="beg_1" departPos="2.20" departSpeed="0.00" departDelay="6.00" arrival="211.00" arrivalLane="end_1" arrivalPos="10.00" arrivalSpeed="6.91" duration="189.00" routeLength="507.80" waitSteps="117" timeLoss="130.68" rerouteNo="0" devices="tripinfo_moped.16" vType="moped" vaporized=""/>
    <tripinfo id="moped.27" depart="38.00" departLane="beg_1" departPos="2.20" departSpeed="0.00" departDelay="11.00" arrival="211.00" arrivalLane="end_1" arrivalPos="10.00" arrivalSpeed="6.38" duration="173.00" routeLength="507.80" waitSteps="113" timeLoss="129.30" rerouteNo="0" devices="tripinfo_moped.27" vType="moped" vaporized=""/>
    <tripinfo id="moped.30" depart="42.00" departLane="beg_1" departPos="2.20" departSpeed="0.00" departDelay="12.00" arrival="211.00" arrivalLane="end_1" arrivalPos="10.00" arrivalSpeed="6.20" duration="169.00" routeLength="507.80" waitSteps="116" timeLoss="138.25" rerouteNo="0" devices="tripinfo_moped.30" vType="moped" vaporized=""/>
    <tripinfo id="moped.23" depart="34.00" departLane="beg_0" departPos="2.20" departSpeed="0.00" departDelay="11.00" arrival="212.00" arrivalLane="end_0" arrivalPos="10.00" arrivalSpeed="6.89" duration="178.00" routeLength="507.80" waitSteps="103" timeLoss="123.13" rerouteNo="0" devices="tripinfo_moped.23" vType="moped" vaporized=""/>
    <tripinfo id="moped.37" depart="49.00" departLane="beg_1" departPos="2.20" departSpeed="0.00" departDelay="12.00" arrival="213.00" arrivalLane="end_1" arrivalPos="10.00" arrivalSpeed="6.78" duration="164.00" routeLength="507.80" waitSteps="111" timeLoss="133.11" rerouteNo="0" devices="tripinfo_moped.37" vType="moped" vaporized=""/>
    <tripinfo id="moped.29" depart="38.00" departLane="beg_1" departPos="2.20" departSpeed="0.00" departDelay="9.00" arrival="213.00" arrivalLane="end_1" arrivalPos="10.00" arrivalSpeed="6.70" duration="175.00" routeLength="507.80" waitSteps="113" timeLoss="128.41" rerouteNo="0" devices="tripinfo_moped.29" vType="moped" vaporized=""/>
    <tripinfo id="moped.31" depart="42.00" departLane="beg_0" departPos="2.20" departSpeed="0.00" departDelay="11.00" arrival="213.00" arrivalLane="end_1" arrivalPos="10.00" arrivalSpeed="7.11" duration="171.00" routeLength="507.80" waitSteps="115" timeLoss="140.19" rerouteNo="0" devices="tripinfo_moped.31" vType="moped" vaporized=""/>
    <tripinfo id="moped.21" depart="31.00" departLane="beg_0" departPos="2.20" departSpeed="0.00" departDelay="10.00" arrival="213.00" arrivalLane="end_0" arrivalPos="10.00" arrivalSpeed="6.95" duration="182.00" routeLength="507.80" waitSteps="119" timeLoss="146.01" rerouteNo="0" devices="tripinfo_moped.21" vType="moped" vaporized=""/>
    <tripinfo id="moped.26" depart="35.00" departLane="beg_0" departPos="2.20" departSpeed="0.00" departDelay="9.00" arrival="213.00" arrivalLane="end_0" arrivalPos="10.00" arrivalSpeed="7.53" duration="178.00" routeLength="507.80" waitSteps="115" timeLoss="128.67" rerouteNo="0" devices="tripinfo_moped.26" vType="moped" vaporized=""/>
    <tripinfo id="moped.33" depart="45.00" departLane="beg_1" departPos="2.20" departSpeed="0.00" departDelay="12.00" arrival="214.00" arrivalLane="end_1" arrivalPos="10.00" arrivalSpeed="6.53" duration="169.00" routeLength="507.80" waitSteps="108" timeLoss="138.43" rerouteNo="0" devices="tripinfo_moped.33" vType="moped" vaporized=""/>
    <tripinfo id="moped.38" depart="50.00" departLane="beg_1" departPos="2.20" departSpeed="0.00" departDelay="12.00" arrival="214.00" arrivalLane="end_1" arrivalPos="10.00" arrivalSpeed="6.41" duration="164.00" routeLength="507.80" waitSteps="106" timeLoss="134.11" rerouteNo="0" devices="tripinfo_moped.38" vType="moped" vaporized=""/>
    <tripinfo id="moped.40" depart="54.00" departLane="beg_0" departPos="2.20" departSpeed="0.00" departDelay="14.00" arrival="215.00" arrivalLane="end_0" arrivalPos="10.00" arrivalSpeed="7.67" duration="161.00" routeLength="507.80" waitSteps="102" timeLoss="127.01" rerouteNo="0" devices="tripinfo_moped.40" vType="moped" vaporized=""/>
    <tripinfo id="moped.35" depart="49.00" departLane="beg_0" departPos="2.20" departSpeed="0.00" departDelay="14.00" arrival="215.00" arrivalLane="end_0" arrivalPos="10.00" arrivalSpeed="7.44" duration="166.00" routeLength="507.80" waitSteps="114" timeLoss="131.05" rerouteNo="0" devices="tripinfo_moped.35" vType="moped" vaporized=""/>
    <tripinfo id="moped.32" depart="42.00" departLane="beg_0" departPos="2.20" departSpeed="0.00" departDelay="10.00" arrival="215.00" arrivalLane="end_0" arrivalPos="10.00" arrivalSpeed="7.84" duration="173.00" routeLength="507.80" waitSteps="110" timeLoss="136.52" rerouteNo="0" devices="tripinfo_moped.32" vType="moped" vaporized=""/>
    <tripinfo id="moped.28" depart="38.00" departLane="beg_0" departPos="2.20" departSpeed="0.00" departDelay="10.00" arrival="215.00" arrivalLane="end_1" arrivalPos="10.00" arrivalSpeed="7.75" duration="177.00" routeLength="507.80" waitSteps="111" timeLoss="146.19" rerouteNo="0" devices="tripinfo_moped.28" vType="moped" vaporized=""/>
    <tripinfo id="moped.42" depart="56.00" departLane="beg_1" departPos="2.20" departSpeed="0.00" departDelay="14.00" arrival="216.00" arrivalLane="end_1" arrivalPos="10.00" arrivalSpeed="7.57" duration="160.00" routeLength="507.80" waitSteps="106" timeLoss="129.25" rerouteNo="0" devices="tripinfo_moped.42" vType="moped" vaporized=""/>
    <tripinfo id="moped.41" depart="54.00" departLane="beg_1" departPos="2.20" departSpeed="0.00" departDelay="13.00" arrival="216.00" arrivalLane="end_1" arrivalPos="10.00" arrivalSpeed="7.06" duration="162.00" routeLength="507.80" waitSteps="103" timeLoss="119.94" rerouteNo="0" devices="tripinfo_moped.41" vType="moped" vaporized=""/>
    <tripinfo id="moped.43" depart="56.00" departLane="beg_0" departPos="2.20" departSpeed="0.00" departDelay="13.00" arrival="216.00" arrivalLane="end_0" arrivalPos="10.00" arrivalSpeed="7.64" duration="160.00" routeLength="507.80" waitSteps="107" timeLoss="127.08" rerouteNo="0" devices="tripinfo_moped.43" vType="moped" vaporized=""/>
    <tripinfo id="moped.36" depart="49.00" departLane="beg_0" departPos="2.20" departSpeed="0.00" departDelay="13.00" arrival="217.00" arrivalLane="end_1" arrivalPos="10.00" arrivalSpeed="7.27" duration="168.00" routeLength="507.80" waitSteps="109" timeLoss="128.02" rerouteNo="0" devices="tripinfo_moped.36" vType="moped" vaporized=""/>
    <tripinfo id="moped.34" depart="45.00" departLane="beg_0" departPos="2.20" departSpeed="0.00" departDelay="11.00" arrival="217.00" arrivalLane="end_0" arrivalPos="10.00" arrivalSpeed="7.72" duration="172.00" routeLength="507.80" waitSteps="107" timeLoss="134.38" rerouteNo="0" devices="tripinfo_moped.34" vType="moped" vaporized=""/>
    <tripinfo id="moped.25" depart="34.00" departLane="beg_0" departPos="2.20" departSpeed="0.00" departDelay="9.00" arrival="217.00" arrivalLane="end_0" arrivalPos="10.00" arrivalSpeed="7.18" duration="183.00" routeLength="507.80" waitSteps="102" timeLoss="123.47" rerouteNo="0" devices="tripinfo_moped.25" vType="moped" vaporized=""/>
    <tripinfo id="moped.52" depart="71.00" departLane="beg_0" departPos="2.20" departSpeed="0.00" departDelay="19.00" arrival="218.00" arrivalLane="end_0" arrivalPos="10.00" arrivalSpeed="8.24" duration="147.00" routeLength="507.80" waitSteps="94" timeLoss="111.93" rerouteNo="0" devices="tripinfo_moped.52" vType="moped" vaporized=""/>
    <tripinfo id="moped.44" depart="60.00" departLane="beg_1" departPos="2.20" departSpeed="0.00" departDelay="16.00" arrival="218.00" arrivalLane="end_1" arrivalPos="10.00" arrivalSpeed="8.11" duration="158.00" routeLength="507.80" waitSteps="103" timeLoss="125.29" rerouteNo="0" devices="tripinfo_moped.44" vType="moped" vaporized=""/>
    <tripinfo id="moped.45" depart="60.00" departLane="beg_0" departPos="2.20" departSpeed="0.00" departDelay="15.00" arrival="218.00" arrivalLane="end_1" arrivalPos="10.00" arrivalSpeed="8.06" duration="158.00" routeLength="507.80" waitSteps="97" timeLoss="127.27" rerouteNo="0" devices="tripinfo_moped.45" vType="moped" vaporized=""/>
    <tripinfo id="moped.39" depart="54.00" departLane="beg_0" departPos="2.20" departSpeed="0.00" departDelay="15.00" arrival="219.00" arrivalLane="end_0" arrivalPos="10.00" arrivalSpeed="8.82" duration="165.00" routeLength="507.80" waitSteps="96" timeLoss="111.97" rerouteNo="0" devices="tripinfo_moped.39" vType="moped" vaporized=""/>
    <tripinfo id="moped.51" depart="70.00" departLane="beg_0" departPos="2.20" departSpeed="0.00" departDelay="19.00" arrival="219.00" arrivalLane="end_0" arrivalPos="10.00" arrivalSpeed="8.05" duration="149.00" routeLength="507.80" waitSteps="98" timeLoss="118.24" rerouteNo="0" devices="tripinfo_moped.51" vType="moped" vaporized=""/>
    <tripinfo id="moped.46" depart="62.00" departLane="beg_1" departPos="2.20" departSpeed="0.00" departDelay="16.00" arrival="219.00" arrivalLane="end_1" arrivalPos="10.00" arrivalSpeed="8.20" duration="157.00" routeLength="507.80" waitSteps="99" timeLoss="119.66" rerouteNo="0" devices="tripinfo_moped.46" vType="moped" vaporized=""/>
    <tripinfo id="moped.58" depart="81.00" departLane="beg_0" departPos="2.20" departSpeed="0.00" departDelay="23.00" arrival="220.00" arrivalLane="end_0" arrivalPos="10.00" arrivalSpeed="9.29" duration="139.00" routeLength="507.80" waitSteps="83" timeLoss="104.34" rerouteNo="0" devices="tripinfo_moped.58" vType="moped" vaporized=""/>
    <tripinfo id="moped.47" depart="64.00" departLane="beg_0" departPos="2.20" departSpeed="0.00" departDelay="17.00" arrival="220.00" arrivalLane="end_0" arrivalPos="10.00" arrivalSpeed="8.51" duration="156.00" routeLength="507.80" waitSteps="89" timeLoss="103.53" rerouteNo="0" devices="tripinfo_moped.47" vType="moped" vaporized=""/>
    <tripinfo id="moped.53" depart="71.00" departLane="beg_1" departPos="2.20" departSpeed="0.00" departDelay="18.00" arrival="220.00" arrivalLane="end_1" arrivalPos="10.00" arrivalSpeed="8.56" duration="149.00" routeLength="507.80" waitSteps="98" timeLoss="118.08" rerouteNo="0" devices="tripinfo_moped.53" vType="moped" vaporized=""/>
    <tripinfo id="moped.24" depart="34.00" departLane="beg_1" departPos="2.20" departSpeed="0.00" departDelay="10.00" arrival="220.00" arrivalLane="end_1" arrivalPos="10.00" arrivalSpeed="6.44" duration="186.00" routeLength="507.80" waitSteps="94" timeLoss="108.76" rerouteNo="0" devices="tripinfo_moped.24" vType="moped" vaporized=""/>
    <tripinfo id="moped.54" depart="73.00" departLane="beg_1" departPos="2.20" departSpeed="0.00" departDelay="19.00" arrival="220.00" arrivalLane="end_1" arrivalPos="10.00" arrivalSpeed="7.49" duration="147.00" routeLength="507.80" waitSteps="87" timeLoss="110.72" rerouteNo="0" devices="tripinfo_moped.54" vType="moped" vaporized=""/>
    <tripinfo id="moped.55" depart="74.00" departLane="beg_0" departPos="2.20" departSpeed="0.00" departDelay="19.00" arrival="221.00" arrivalLane="end_0" arrivalPos="10.00" arrivalSpeed="8.75" duration="147.00" routeLength="507.80" waitSteps="89" timeLoss="109.41" rerouteNo="0" devices="tripinfo_moped.55" vType="moped" vaporized=""/>
    <tripinfo id="moped.48" depart="66.00" departLane="beg_1" departPos="2.20" departSpeed="0.00" departDelay="18.00" arrival="222.00" arrivalLane="end_1" arrivalPos="10.00" arrivalSpeed="7.96" duration="156.00" routeLength="507.80" waitSteps="85" timeLoss="97.15" rerouteNo="0" devices="tripinfo_moped.48" vType="moped" vaporized=""/>
    <tripinfo id="moped.57" depart="78.00" departLane="beg_1" departPos="2.20" departSpeed="0.00" departDelay="21.00" arrival="222.00" arrivalLane="end_1" arrivalPos="10.00" arrivalSpeed="9.16" duration="144.00" routeLength="507.80" waitSteps="89" timeLoss="113.04" rerouteNo="0" devices="tripinfo_moped.57" vType="moped" vaporized=""/>
    <tripinfo id="moped.60" depart="84.00" departLane="beg_1" departPos="2.20" departSpeed="0.00" departDelay="24.00" arrival="222.00" arrivalLane="end_1" arrivalPos="10.00" arrivalSpeed="9.27" duration="138.00" routeLength="507.80" waitSteps="82" timeLoss="107.31" rerouteNo="0" devices="tripinfo_moped.60" vType="moped" vaporized=""/>
    <tripinfo id="moped.56" depart="77.00" departLane="beg_0" departPos="2.20" departSpeed="0.00" departDelay="21.00" arrival="222.00" arrivalLane="end_0" arrivalPos="10.00" arrivalSpeed="9.40" duration="145.00" routeLength="507.80" waitSteps="77" timeLoss="91.57" rerouteNo="0" devices="tripinfo_moped.56" vType="moped" vaporized=""/>
    <tripinfo id="moped.49" depart="68.00" departLane="beg_0" departPos="2.20" departSpeed="0.00" departDelay="19.00" arrival="222.00" arrivalLane="end_0" arrivalPos="10.00" arrivalSpeed="7.64" duration="154.00" routeLength="507.80" waitSteps="73" timeLoss="87.47" rerouteNo="0" devices="tripinfo_moped.49" vType="moped" vaporized=""/>
    <tripinfo id="moped.61" depart="85.00" departLane="beg_0" departPos="2.20" departSpeed="0.00" departDelay="24.00" arrival="222.00" arrivalLane="end_0" arrivalPos="10.00" arrivalSpeed="8.25" duration="137.00" routeLength="507.80" waitSteps="83" timeLoss="106.43" rerouteNo="0" devices="tripinfo_moped.61" vType="moped" vaporized=""/>
    <tripinfo id="moped.64" depart="91.00" departLane="beg_0" departPos="2.20" departSpeed="0.00" departDelay="27.00" arrival="223.00" arrivalLane="end_0" arrivalPos="10.00" arrivalSpeed="9.83" duration="132.00" routeLength="507.80" waitSteps="71" timeLoss="86.75" rerouteNo="0" devices="tripinfo_moped.64" vType="moped" vaporized=""/>
    <tripinfo id="moped.62" depart="87.00" departLane="beg_1" departPos="2.20" departSpeed="0.00" departDelay="25.00" arrival="223.00" arrivalLane="end_1" arrivalPos="10.00" arrivalSpeed="8.01" duration="136.00" routeLength="507.80" waitSteps="81" timeLoss="100.85" rerouteNo="0" devices="tripinfo_moped.62" vType="moped" vaporized=""/>
    <tripinfo id="moped.59" depart="81.00" departLane="beg_1" departPos="2.20" departSpeed="0.00" departDelay="22.00" arrival="223.00" arrivalLane="end_1" arrivalPos="10.00" arrivalSpeed="9.34" duration="142.00" routeLength="507.80" waitSteps="85" timeLoss="101.50" rerouteNo="0" devices="tripinfo_moped.59" vType="moped" vaporized=""/>
    <tripinfo id="moped.66" depart="92.00" departLane="beg_0" departPos="2.20" departSpeed="0.00" departDelay="26.00" arrival="224.00" arrivalLane="end_0" arrivalPos="10.00" arrivalSpeed="9.38" duration="132.00" routeLength="507.80" waitSteps="64" timeLoss="80.58" rerouteNo="0" devices="tripinfo_moped.66" vType="moped" vaporized=""/>
    <tripinfo id="moped.63" depart="88.00" departLane="beg_0" departPos="2.20" departSpeed="0.00" departDelay="25.00" arrival="224.00" arrivalLane="end_0" arrivalPos="10.00" arrivalSpeed="8.97" duration="136.00" routeLength="507.80" waitSteps="77" timeLoss="97.53" rerouteNo="0" devices="tripinfo_moped.63" vType="moped" vaporized=""/>
    <tripinfo id="moped.70" depart="100.00" departLane="beg_0" departPos="2.20" departSpeed="0.00" departDelay="30.00" arrival="225.00" arrivalLane="end_0" arrivalPos="10.00" arrivalSpeed="9.11" duration="125.00" routeLength="507.80" waitSteps="68" timeLoss="90.75" rerouteNo="0" devices="tripinfo_moped.70" vType="moped" vaporized=""/>
    <tripinfo id="moped.50" depart="70.00" departLane="beg_1" departPos="2.20" departSpeed="0.00" departDelay="20.00" arrival="225.00" arrivalLane="end_1" arrivalPos="10.00" arrivalSpeed="7.77" duration="155.00" routeLength="507.80" waitSteps="75" timeLoss="89.36" rerouteNo="0" devices="tripinfo_moped.50" vType="moped" vaporized=""/>
    <tripinfo id="moped.65" depart="92.00" departLane="beg_1" departPos="2.20" departSpeed="0.00" departDelay="27.00" arrival="225.00" arrivalLane="end_1" arrivalPos="10.00" arrivalSpeed="8.96" duration="133.00" routeLength="507.80" waitSteps="62" timeLoss="75.69" rerouteNo="0" devices="tripinfo_moped.65" vType="moped" vaporized=""/>
    <tripinfo id="moped.69" depart="99.00" departLane="beg_1" departPos="2.20" departSpeed="0.00" departDelay="30.00" arrival="225.00" arrivalLane="end_1" arrivalPos="10.00" arrivalSpeed="9.35" duration="126.00" routeLength="507.80" waitSteps="71" timeLoss="91.27" rerouteNo="0" devices="tripinfo_moped.69" vType="moped" vaporized=""/>
    <tripinfo id="moped.71" depart="101.00" departLane="beg_1" departPos="2.20" departSpeed="0.00" departDelay="30.00" arrival="226.00" arrivalLane="end_1" arrivalPos="10.00" arrivalSpeed="8.84" duration="125.00" routeLength="507.80" waitSteps="64" timeLoss="84.95" rerouteNo="0" devices="tripinfo_moped.71" vType="moped" vaporized=""/>
    <tripinfo id="moped.73" depart="106.00" departLane="beg_0" departPos="2.20" departSpeed="0.00" departDelay="33.00" arrival="226.00" arrivalLane="end_0" arrivalPos="10.00" arrivalSpeed="9.72" duration="120.00" routeLength="507.80" waitSteps="64" timeLoss="88.15" rerouteNo="0" devices="tripinfo_moped.73" vType="moped" vaporized=""/>
    <tripinfo id="moped.68" depart="97.00" departLane="beg_0" departPos="2.20" departSpeed="0.00" departDelay="29.00" arrival="226.00" arrivalLane="end_0" arrivalPos="10.00" arrivalSpeed="9.05" duration="129.00" routeLength="507.80" waitSteps="74" timeLoss="95.96" rerouteNo="0" devices="tripinfo_moped.68" vType="moped" vaporized=""/>
    <tripinfo id="moped.72" depart="104.00" departLane="beg_0" departPos="2.20" departSpeed="0.00" departDelay="32.00" arrival="227.00" arrivalLane="end_0" arrivalPos="10.00" arrivalSpeed="9.41" duration="123.00" routeLength="507.80" waitSteps="59" timeLoss="78.07" rerouteNo="0" devices="tripinfo_moped.72" vType="moped" vaporized=""/>
    <tripinfo id="moped.77" depart="111.00" departLane="beg_0" departPos="2.20" departSpeed="0.00" departDelay="34.00" arrival="227.00" arrivalLane="end_0" arrivalPos="10.00" arrivalSpeed="9.85" duration="116.00" routeLength="507.80" waitSteps="56" timeLoss="77.10" rerouteNo="0" devices="tripinfo_moped.77" vType="moped" vaporized=""/>
    <tripinfo id="moped.76" depart="109.00" departLane="beg_0" departPos="2.20" departSpeed="0.00" departDelay="33.00" arrival="227.00" arrivalLane="end_0" arrivalPos="10.00" arrivalSpeed="9.42" duration="118.00" routeLength="507.80" waitSteps="61" timeLoss="84.59" rerouteNo="0" devices="tripinfo_moped.76" vType="moped" vaporized=""/>
    <tripinfo id="moped.67" depart="96.00" departLane="beg_1" departPos="2.20" departSpeed="0.00" departDelay="29.00" arrival="227.00" arrivalLane="end_1" arrivalPos="10.00" arrivalSpeed="9.85" duration="131.00" routeLength="507.80" waitSteps="63" timeLoss="80.97" rerouteNo="0" devices="tripinfo_moped.67" vType="moped" vaporized=""/>
    <tripinfo id="moped.75" depart="109.00" departLane="beg_1" departPos="2.20" departSpeed="0.00" departDelay="34.00" arrival="227.00" arrivalLane="end_1" arrivalPos="10.00" arrivalSpeed="10.12" duration="118.00" routeLength="507.80" waitSteps="61" timeLoss="79.14" rerouteNo="0" devices="tripinfo_moped.75" vType="moped" vaporized=""/>
    <tripinfo id="moped.79" depart="114.00" departLane="beg_1" departPos="2.20" departSpeed="0.00" departDelay="35.00" arrival="228.00" arrivalLane="end_1" arrivalPos="10.00" arrivalSpeed="10.08" duration="114.00" routeLength="507.80" waitSteps="59" timeLoss="83.03" rerouteNo="0" devices="tripinfo_moped.79" vType="moped" vaporized=""/>
    <tripinfo id="moped.74" depart="106.00" departLane="beg_1" departPos="2.20" departSpeed="0.00" departDelay="32.00" arrival="228.00" arrivalLane="end_1" arrivalPos="10.00" arrivalSpeed="9.59" duration="122.00" routeLength="507.80" waitSteps="62" timeLoss="79.61" rerouteNo="0" devices="tripinfo_moped.74" vType="moped" vaporized=""/>
    <tripinfo id="moped.81" depart="118.00" departLane="beg_0" departPos="2.20" departSpeed="0.00" departDelay="37.00" arrival="229.00" arrivalLane="end_0" arrivalPos="10.00" arrivalSpeed="9.98" duration="111.00" routeLength="507.80" waitSteps="55" timeLoss="73.58" rerouteNo="0" devices="tripinfo_moped.81" vType="moped" vaporized=""/>
    <tripinfo id="moped.82" depart="119.00" departLane="beg_0" departPos="2.20" departSpeed="0.00" departDelay="37.00" arrival="229.00" arrivalLane="end_0" arrivalPos="10.00" arrivalSpeed="9.85" duration="110.00" routeLength="507.80" waitSteps="50" timeLoss="74.73" rerouteNo="0" devices="tripinfo_moped.82" vType="moped" vaporized=""/>
    <tripinfo id="moped.78" depart="114.00" departLane="beg_0" departPos="2.20" departSpeed="0.00" departDelay="36.00" arrival="229.00" arrivalLane="end_0" arrivalPos="10.00" arrivalSpeed="9.80" duration="115.00" routeLength="507.80" waitSteps="57" timeLoss="78.85" rerouteNo="0" devices="tripinfo_moped.78" vType="moped" vaporized=""/>
    <tripinfo id="moped.80" depart="117.00" departLane="beg_1" departPos="2.20" departSpeed="0.00" departDelay="37.00" arrival="229.00" arrivalLane="end_1" arrivalPos="10.00" arrivalSpeed="11.69" duration="112.00" routeLength="507.80" waitSteps="51" timeLoss="78.09" rerouteNo="0" devices="tripinfo_moped.80" vType="moped" vaporized=""/>
    <tripinfo id="moped.84" depart="121.00" departLane="beg_0" departPos="2.20" departSpeed="0.00" departDelay="37.00" arrival="229.00" arrivalLane="end_1" arrivalPos="10.00" arrivalSpeed="10.42" duration="108.00" routeLength="507.80" waitSteps="55" timeLoss="77.38" rerouteNo="0" devices="tripinfo_moped.84" vType="moped" vaporized=""/>
    <tripinfo id="moped.85" depart="123.00" departLane="beg_1" departPos="2.20" departSpeed="0.00" departDelay="38.00" arrival="230.00" arrivalLane="end_1" arrivalPos="10.00" arrivalSpeed="11.38" duration="107.00" routeLength="507.80" waitSteps="49" timeLoss="67.00" rerouteNo="0" devices="tripinfo_moped.85" vType="moped" vaporized=""/>
    <tripinfo id="moped.83" depart="119.00" departLane="beg_1" departPos="2.20" departSpeed="0.00" departDelay="36.00" arrival="230.00" arrivalLane="end_1" arrivalPos="10.00" arrivalSpeed="11.09" duration="111.00" routeLength="507.80" waitSteps="50" timeLoss="69.99" rerouteNo="0" devices="tripinfo_moped.83" vType="moped" vaporized=""/>