<?xml version="1.0" encoding="UTF-8"?>

<!-- generated on Thu Oct 22 07:26:17 2015 by SUMO Version dev-SVN-r19136
<?xml version="1.0" encoding="UTF-8"?>

<configuration xmlns:xsi="http://www.w3.org/2001/XMLSchema-instance" xsi:noNamespaceSchemaLocation="http://sumo.dlr.de/xsd/sumoConfiguration.xsd">

    <input>
        <net-file value="net.net.xml"/>
        <route-files value="input_routes.rou.xml"/>
    </input>

    <output>
        <tripinfo-output value="tripinfos.xml"/>
    </output>

    <processing>
        <lateral-resolution value="1.1"/>
    </processing>

    <report>
        <xml-validation value="never"/>
        <no-step-log value="true"/>
    </report>

</configuration>
-->

<tripinfos xmlns:xsi="http://www.w3.org/2001/XMLSchema-instance" xsi:noNamespaceSchemaLocation="http://sumo.dlr.de/xsd/tripinfo_file.xsd">
    <tripinfo id="moped.6" depart="7.00" departLane="beg_1" departPos="2.20" departSpeed="0.00" departDelay="1.00" arrival="204.00" arrivalLane="end_1" arrivalPos="10.00" arrivalSpeed="4.40" duration="197.00" routeLength="507.80" waitSteps="149" timeLoss="164.70" rerouteNo="0" devices="tripinfo_moped.6" vType="moped" vaporized=""/>
    <tripinfo id="moped.3" depart="4.00" departLane="beg_1" departPos="2.20" departSpeed="0.00" departDelay="1.00" arrival="204.00" arrivalLane="end_1" arrivalPos="10.00" arrivalSpeed="3.82" duration="200.00" routeLength="507.80" waitSteps="154" timeLoss="169.46" rerouteNo="0" devices="tripinfo_moped.3" vType="moped" vaporized=""/>
    <tripinfo id="moped.0" depart="0.00" departLane="beg_0" departPos="2.20" departSpeed="0.00" departDelay="0.00" arrival="204.00" arrivalLane="end_0" arrivalPos="10.00" arrivalSpeed="4.29" duration="204.00" routeLength="507.80" waitSteps="158" timeLoss="172.82" rerouteNo="0" devices="tripinfo_moped.0" vType="moped" vaporized=""/>
    <tripinfo id="moped.2" depart="2.00" departLane="beg_0" departPos="2.20" departSpeed="0.00" departDelay="0.00" arrival="204.00" arrivalLane="end_0" arrivalPos="10.00" arrivalSpeed="4.48" duration="202.00" routeLength="507.80" waitSteps="153" timeLoss="166.35" rerouteNo="0" devices="tripinfo_moped.2" vType="moped" vaporized=""/>
    <tripinfo id="moped.4" depart="4.00" departLane="beg_0" departPos="2.20" departSpeed="0.00" departDelay="0.00" arrival="204.00" arrivalLane="end_0" arrivalPos="10.00" arrivalSpeed="3.82" duration="200.00" routeLength="507.80" waitSteps="150" timeLoss="166.38" rerouteNo="0" devices="tripinfo_moped.4" vType="moped" vaporized=""/>
    <tripinfo id="moped.1" depart="1.00" departLane="beg_1" departPos="2.20" departSpeed="0.00" departDelay="0.00" arrival="205.00" arrivalLane="end_1" arrivalPos="10.00" arrivalSpeed="4.58" duration="204.00" routeLength="507.80" waitSteps="146" timeLoss="158.79" rerouteNo="0" devices="tripinfo_moped.1" vType="moped" vaporized=""/>
    <tripinfo id="moped.7" depart="8.00" departLane="beg_0" departPos="2.20" departSpeed="0.00" departDelay="1.00" arrival="206.00" arrivalLane="end_0" arrivalPos="10.00" arrivalSpeed="5.29" duration="198.00" routeLength="507.80" waitSteps="129" timeLoss="142.08" rerouteNo="0" devices="tripinfo_moped.7" vType="moped" vaporized=""/>
    <tripinfo id="moped.8" depart="8.00" departLane="beg_1" departPos="2.20" departSpeed="0.00" departDelay="0.00" arrival="206.00" arrivalLane="end_0" arrivalPos="10.00" arrivalSpeed="4.82" duration="198.00" routeLength="507.80" waitSteps="139" timeLoss="152.95" rerouteNo="0" devices="tripinfo_moped.8" vType="moped" vaporized=""/>
    <tripinfo id="moped.13" depart="15.00" departLane="beg_0" departPos="2.20" departSpeed="0.00" departDelay="2.00" arrival="206.00" arrivalLane="end_1" arrivalPos="10.00" arrivalSpeed="4.93" duration="191.00" routeLength="507.80" waitSteps="135" timeLoss="160.43" rerouteNo="0" devices="tripinfo_moped.13" vType="moped" vaporized=""/>
    <tripinfo id="moped.14" depart="16.00" departLane="beg_1" departPos="2.20" departSpeed="0.00" departDelay="2.00" arrival="206.00" arrivalLane="end_1" arrivalPos="10.00" arrivalSpeed="4.95" duration="190.00" routeLength="507.80" waitSteps="137" timeLoss="152.34" rerouteNo="0" devices="tripinfo_moped.14" vType="moped" vaporized=""/>
    <tripinfo id="moped.11" depart="12.00" departLane="beg_0" departPos="2.20" departSpeed="0.00" departDelay="1.00" arrival="207.00" arrivalLane="end_0" arrivalPos="10.00" arrivalSpeed="5.29" duration="195.00" routeLength="507.80" waitSteps="132" timeLoss="160.74" rerouteNo="0" devices="tripinfo_moped.11" vType="moped" vaporized=""/>
    <tripinfo id="moped.12" depart="15.00" departLane="beg_1" departPos="2.20" departSpeed="0.00" departDelay="3.00" arrival="207.00" arrivalLane="end_1" arrivalPos="10.00" arrivalSpeed="5.02" duration="192.00" routeLength="507.80" waitSteps="143" timeLoss="159.75" rerouteNo="0" devices="tripinfo_moped.12" vType="moped" vaporized=""/>
    <tripinfo id="moped.20" depart="23.00" departLane="beg_1" departPos="2.20" departSpeed="0.00" departDelay="3.00" arrival="208.00" arrivalLane="end_0" arrivalPos="10.00" arrivalSpeed="5.85" duration="185.00" routeLength="507.80" waitSteps="130" timeLoss="150.08" rerouteNo="0" devices="tripinfo_moped.20" vType="moped" vaporized=""/>
    <tripinfo id="moped.15" depart="19.00" departLane="beg_1" departPos="2.20" departSpeed="0.00" departDelay="4.00" arrival="208.00" arrivalLane="end_0" arrivalPos="10.00" arrivalSpeed="5.61" duration="189.00" routeLength="507.80" waitSteps="128" timeLoss="142.02" rerouteNo="0" devices="tripinfo_moped.15" vType="moped" vaporized=""/>
    <tripinfo id="moped.19" depart="22.00" departLane="beg_0" departPos="2.20" departSpeed="0.00" departDelay="3.00" arrival="208.00" arrivalLane="end_1" arrivalPos="10.00" arrivalSpeed="5.72" duration="186.00" routeLength="507.80" waitSteps="137" timeLoss="155.40" rerouteNo="0" devices="tripinfo_moped.19" vType="moped" vaporized=""/>
    <tripinfo id="moped.17" depart="19.00" departLane="beg_0" departPos="2.20" departSpeed="0.00" departDelay="2.00" arrival="209.00" arrivalLane="end_0" arrivalPos="10.00" arrivalSpeed="5.48" duration="190.00" routeLength="507.80" waitSteps="131" timeLoss="145.16" rerouteNo="0" devices="tripinfo_moped.17" vType="moped" vaporized=""/>
    <tripinfo id="moped.18" depart="22.00" departLane="beg_1" departPos="2.20" departSpeed="0.00" departDelay="4.00" arrival="209.00" arrivalLane="end_1" arrivalPos="10.00" arrivalSpeed="6.08" duration="187.00" routeLength="507.80" waitSteps="128" timeLoss="141.30" rerouteNo="0" devices="tripinfo_moped.18" vType="moped" vaporized=""/>
    <tripinfo id="moped.10" depart="12.00" departLane="beg_0" departPos="2.20" departSpeed="0.00" departDelay="2.00" arrival="209.00" arrivalLane="end_1" arrivalPos="10.00" arrivalSpeed="5.97" duration="197.00" routeLength="507.80" waitSteps="128" timeLoss="166.25" rerouteNo="0" devices="tripinfo_moped.10" vType="moped" vaporized=""/>
    <tripinfo id="moped.9" depart="11.00" departLane="beg_1" departPos="2.20" departSpeed="0.00" departDelay="2.00" arrival="210.00" arrivalLane="end_0" arrivalPos="10.00" arrivalSpeed="6.38" duration="199.00" routeLength="507.80" waitSteps="122" timeLoss="134.60" rerouteNo="0" devices="tripinfo_moped.9" vType="moped" vaporized=""/>
    <tripinfo id="moped.5" depart="6.00" departLane="beg_0" departPos="2.20" departSpeed="0.00" departDelay="1.00" arrival="210.00" arrivalLane="end_0" arrivalPos="10.00" arrivalSpeed="6.18" duration="204.00" routeLength="507.80" waitSteps="118" timeLoss="129.68" rerouteNo="0" devices="tripinfo_moped.5" vType="moped" vaporized=""/>
    <tripinfo id="moped.28" depart="38.00" departLane="beg_0" departPos="2.20" departSpeed="0.00" departDelay="10.00" arrival="210.00" arrivalLane="end_1" arrivalPos="10.00" arrivalSpeed="6.05" duration="172.00" routeLength="507.80" waitSteps="122" timeLoss="141.35" rerouteNo="0" devices="tripinfo_moped.28" vType="moped" vaporized=""/>
    <tripinfo id="moped.22" depart="27.00" departLane="beg_1" departPos="2.20" departSpeed="0.00" departDelay="5.00" arrival="211.00" arrivalLane="end_0" arrivalPos="10.00" arrivalSpeed="6.65" duration="184.00" routeLength="507.80" waitSteps="128" timeLoss="143.98" rerouteNo="0" devices="tripinfo_moped.22" vType="moped" vaporized=""/>
    <tripinfo id="moped.21" depart="26.00" departLane="beg_0" departPos="2.20" departSpeed="0.00" departDelay="5.00" arrival="211.00" arrivalLane="end_1" arrivalPos="10.00" arrivalSpeed="6.36" duration="185.00" routeLength="507.80" waitSteps="122" timeLoss="149.09" rerouteNo="0" devices="tripinfo_moped.21" vType="moped" vaporized=""/>
    <tripinfo id="moped.30" depart="42.00" departLane="beg_1" departPos="2.20" departSpeed="0.00" departDelay="12.00" arrival="211.00" arrivalLane="end_1" arrivalPos="10.00" arrivalSpeed="5.88" duration="169.00" routeLength="507.80" waitSteps="117" timeLoss="138.33" rerouteNo="0" devices="tripinfo_moped.30" vType="moped" vaporized=""/>
    <tripinfo id="moped.27" depart="37.00" departLane="beg_1" departPos="2.20" departSpeed="0.00" departDelay="10.00" arrival="212.00" arrivalLane="end_0" arrivalPos="10.00" arrivalSpeed="6.77" duration="175.00" routeLength="507.80" waitSteps="115" timeLoss="131.51" rerouteNo="0" devices="tripinfo_moped.27" vType="moped" vaporized=""/>
    <tripinfo id="moped.23" depart="30.00" departLane="beg_0" departPos="2.20" departSpeed="0.00" departDelay="7.00" arrival="212.00" arrivalLane="end_0" arrivalPos="10.00" arrivalSpeed="6.83" duration="182.00" routeLength="507.80" waitSteps="110" timeLoss="127.00" rerouteNo="0" devices="tripinfo_moped.23" vType="moped" vaporized=""/>
    <tripinfo id="moped.16" depart="19.00" departLane="beg_0" departPos="2.20" departSpeed="0.00" departDelay="3.00" arrival="212.00" arrivalLane="end_0" arrivalPos="10.00" arrivalSpeed="6.19" duration="193.00" routeLength="507.80" waitSteps="119" timeLoss="135.35" rerouteNo="0" devices="tripinfo_moped.16" vType="moped" vaporized=""/>
    <tripinfo id="moped.33" depart="46.00" departLane="beg_0" departPos="2.20" departSpeed="0.00" departDelay="13.00" arrival="212.00" arrivalLane="end_1" arrivalPos="10.00" arrivalSpeed="7.35" duration="166.00" routeLength="507.80" waitSteps="112" timeLoss="135.22" rerouteNo="0" devices="tripinfo_moped.33" vType="moped" vaporized=""/>
    <tripinfo id="moped.32" depart="45.00" departLane="beg_1" departPos="2.20" departSpeed="0.00" departDelay="13.00" arrival="213.00" arrivalLane="end_1" arrivalPos="10.00" arrivalSpeed="6.66" duration="168.00" routeLength="507.80" waitSteps="113" timeLoss="131.54" rerouteNo="0" devices="tripinfo_moped.32" vType="moped" vaporized=""/>
    <tripinfo id="moped.31" depart="43.00" departLane="beg_0" departPos="2.20" departSpeed="0.00" departDelay="12.00" arrival="213.00" arrivalLane="end_1" arrivalPos="10.00" arrivalSpeed="7.11" duration="170.00" routeLength="507.80" waitSteps="120" timeLoss="139.19" rerouteNo="0" devices="tripinfo_moped.31" vType="moped" vaporized=""/>
    <tripinfo id="moped.26" depart="34.00" departLane="beg_0" departPos="2.20" departSpeed="0.00" departDelay="8.00" arrival="214.00" arrivalLane="end_0" arrivalPos="10.00" arrivalSpeed="7.72" duration="180.00" routeLength="507.80" waitSteps="108" timeLoss="130.91" rerouteNo="0" devices="tripinfo_moped.26" vType="moped" vaporized=""/>
    <tripinfo id="moped.25" depart="33.00" departLane="beg_1" departPos="2.20" departSpeed="0.00" departDelay="8.00" arrival="214.00" arrivalLane="end_0" arrivalPos="10.00" arrivalSpeed="7.49" duration="181.00" routeLength="507.80" waitSteps="108" timeLoss="121.40" rerouteNo="0" devices="tripinfo_moped.25" vType="moped" vaporized=""/>
    <tripinfo id="moped.29" depart="41.00" departLane="beg_0" departPos="2.20" departSpeed="0.00" departDelay="12.00" arrival="214.00" arrivalLane="end_0" arrivalPos="10.00" arrivalSpeed="7.47" duration="173.00" routeLength="507.80" waitSteps="111" timeLoss="126.63" rerouteNo="0" devices="tripinfo_moped.29" vType="moped" vaporized=""/>
    <tripinfo id="moped.36" depart="49.00" departLane="beg_0" departPos="2.20" departSpeed="0.00" departDelay="13.00" arrival="214.00" arrivalLane="end_1" arrivalPos="10.00" arrivalSpeed="6.91" duration="165.00" routeLength="507.80" waitSteps="110" timeLoss="124.93" rerouteNo="0" devices="tripinfo_moped.36" vType="moped" vaporized=""/>
    <tripinfo id="moped.35" depart="49.00" departLane="beg_1" departPos="2.20" departSpeed="0.00" departDelay="14.00" arrival="214.00" arrivalLane="end_1" arrivalPos="10.00" arrivalSpeed="6.25" duration="165.00" routeLength="507.80" waitSteps="112" timeLoss="130.40" rerouteNo="0" devices="tripinfo_moped.35" vType="moped" vaporized=""/>
    <tripinfo id="moped.34" depart="48.00" departLane="beg_1" departPos="2.20" departSpeed="0.00" departDelay="14.00" arrival="215.00" arrivalLane="end_1" arrivalPos="10.00" arrivalSpeed="7.51" duration="167.00" routeLength="507.80" waitSteps="112" timeLoss="129.29" rerouteNo="0" devices="tripinfo_moped.34" vType="moped" vaporized=""/>
    <tripinfo id="moped.42" depart="60.00" departLane="beg_1" departPos="2.20" departSpeed="0.00" departDelay="18.00" arrival="216.00" arrivalLane="end_1" arrivalPos="10.00" arrivalSpeed="7.68" duration="156.00" routeLength="507.80" waitSteps="106" timeLoss="125.26" rerouteNo="0" devices="tripinfo_moped.42" vType="moped" vaporized=""/>
    <tripinfo id="moped.44" depart="64.00" departLane="beg_1" departPos="2.20" departSpeed="0.00" departDelay="20.00" arrival="216.00" arrivalLane="end_1" arrivalPos="10.00" arrivalSpeed="7.45" duration="152.00" routeLength="507.80" waitSteps="97" timeLoss="119.44" rerouteNo="0" devices="tripinfo_moped.44" vType="moped" vaporized=""/>
    <tripinfo id="moped.37" depart="52.00" departLane="beg_0" departPos="2.20" departSpeed="0.00" departDelay="15.00" arrival="216.00" arrivalLane="end_0" arrivalPos="10.00" arrivalSpeed="7.83" duration="164.00" routeLength="507.80" waitSteps="95" timeLoss="133.11" rerouteNo="0" devices="tripinfo_moped.37" vType="moped" vaporized=""/>
    <tripinfo id="moped.45" depart="66.00" departLane="beg_1" departPos="2.20" departSpeed="0.00" departDelay="21.00" arrival="216.00" arrivalLane="end_0" arrivalPos="10.00" arrivalSpeed="7.63" duration="150.00" routeLength="507.80" waitSteps="97" timeLoss="119.17" rerouteNo="0" devices="tripinfo_moped.45" vType="moped" vaporized=""/>
    <tripinfo id="moped.24" depart="30.00" departLane="beg_1" departPos="2.20" departSpeed="0.00" departDelay="6.00" arrival="216.00" arrivalLane="end_0" arrivalPos="10.00" arrivalSpeed="6.24" duration="186.00" routeLength="507.80" waitSteps="96" timeLoss="108.86" rerouteNo="0" devices="tripinfo_moped.24" vType="moped" vaporized=""/>
    <tripinfo id="moped.46" depart="67.00" departLane="beg_0" departPos="2.20" departSpeed="0.00" departDelay="21.00" arrival="217.00" arrivalLane="end_0" arrivalPos="10.00" arrivalSpeed="7.87" duration="150.00" routeLength="507.80" waitSteps="96" timeLoss="113.09" rerouteNo="0" devices="tripinfo_moped.46" vType="moped" vaporized=""/>
    <tripinfo id="moped.38" depart="52.00" departLane="beg_1" departPos="2.20" departSpeed="0.00" departDelay="14.00" arrival="217.00" arrivalLane="end_1" arrivalPos="10.00" arrivalSpeed="7.96" duration="165.00" routeLength="507.80" waitSteps="114" timeLoss="134.09" rerouteNo="0" devices="tripinfo_moped.38" vType="moped" vaporized=""/>
    <tripinfo id="moped.43" depart="63.00" departLane="beg_0" departPos="2.20" departSpeed="0.00" departDelay="20.00" arrival="218.00" arrivalLane="end_0" arrivalPos="10.00" arrivalSpeed="8.72" duration="155.00" routeLength="507.80" waitSteps="94" timeLoss="121.64" rerouteNo="0" devices="tripinfo_moped.43" vType="moped" vaporized=""/>
    <tripinfo id="moped.39" depart="54.00" departLane="beg_1" departPos="2.20" departSpeed="0.00" departDelay="15.00" arrival="218.00" arrivalLane="end_0" arrivalPos="10.00" arrivalSpeed="7.87" duration="164.00" routeLength="507.80" waitSteps="95" timeLoss="111.56" rerouteNo="0" devices="tripinfo_moped.39" vType="moped" vaporized=""/>
    <tripinfo id="moped.40" depart="57.00" departLane="beg_0" departPos="2.20" departSpeed="0.00" departDelay="17.00" arrival="218.00" arrivalLane="end_1" arrivalPos="10.00" arrivalSpeed="8.72" duration="161.00" routeLength="507.80" waitSteps="93" timeLoss="126.95" rerouteNo="0" devices="tripinfo_moped.40" vType="moped" vaporized=""/>
    <tripinfo id="moped.54" depart="78.00" departLane="beg_1" departPos="2.20" departSpeed="0.00" departDelay="24.00" arrival="218.00" arrivalLane="end_1" arrivalPos="10.00" arrivalSpeed="8.92" duration="140.00" routeLength="507.80" waitSteps="85" timeLoss="103.23" rerouteNo="0" devices="tripinfo_moped.54" vType="moped" vaporized=""/>
    <tripinfo id="moped.41" depart="58.00" departLane="beg_1" departPos="2.20" departSpeed="0.00" departDelay="17.00" arrival="218.00" arrivalLane="end_1" arrivalPos="10.00" arrivalSpeed="8.03" duration="160.00" routeLength="507.80" waitSteps="99" timeLoss="117.91" rerouteNo="0" devices="tripinfo_moped.41" vType="moped" vaporized=""/>
    <tripinfo id="moped.51" depart="73.00" departLane="beg_0" departPos="2.20" departSpeed="0.00" departDelay="22.00" arrival="219.00" arrivalLane="end_1" arrivalPos="10.00" arrivalSpeed="8.27" duration="146.00" routeLength="507.80" waitSteps="78" timeLoss="115.37" rerouteNo="0" devices="tripinfo_moped.51" vType="moped" vaporized=""/>
    <tripinfo id="moped.53" depart="77.00" departLane="beg_1" departPos="2.20" departSpeed="0.00" departDelay="24.00" arrival="219.00" arrivalLane="end_1" arrivalPos="10.00" arrivalSpeed="8.48" duration="142.00" routeLength="507.80" waitSteps="76" timeLoss="111.44" rerouteNo="0" devices="tripinfo_moped.53" vType="moped" vaporized=""/>
    <tripinfo id="moped.60" depart="89.00" departLane="beg_1" departPos="2.20" departSpeed="0.00" departDelay="29.00" arrival="219.00" arrivalLane="end_0" arrivalPos="10.00" arrivalSpeed="9.06" duration="130.00" routeLength="507.80" waitSteps="80" timeLoss="99.27" rerouteNo="0" devices="tripinfo_moped.60" vType="moped" vaporized=""/>
    <tripinfo id="moped.48" depart="68.00" departLane="beg_0" departPos="2.20" departSpeed="0.00" departDelay="20.00" arrival="219.00" arrivalLane="end_0" arrivalPos="10.00" arrivalSpeed="8.33" duration="151.00" routeLength="507.80" waitSteps="77" timeLoss="92.97" rerouteNo="0" devices="tripinfo_moped.48" vType="moped" vaporized=""/>
    <tripinfo id="moped.47" depart="67.00" departLane="beg_1" departPos="2.20" departSpeed="0.00" departDelay="20.00" arrival="220.00" arrivalLane="end_0" arrivalPos="10.00" arrivalSpeed="8.29" duration="153.00" routeLength="507.80" waitSteps="84" timeLoss="100.44" rerouteNo="0" devices="tripinfo_moped.47" vType="moped" vaporized=""/>
    <tripinfo id="moped.61" depart="89.00" departLane="beg_1" departPos="2.20" departSpeed="0.00" departDelay="28.00" arrival="220.00" arrivalLane="end_1" arrivalPos="10.00" arrivalSpeed="8.83" duration="131.00" routeLength="507.80" waitSteps="78" timeLoss="100.23" rerouteNo="0" devices="tripinfo_moped.61" vType="moped" vaporized=""/>
    <tripinfo id="moped.63" depart="92.00" departLane="beg_1" departPos="2.20" departSpeed="0.00" departDelay="29.00" arrival="221.00" arrivalLane="end_1" arrivalPos="10.00" arrivalSpeed="9.10" duration="129.00" routeLength="507.80" waitSteps="73" timeLoss="90.69" rerouteNo="0" devices="tripinfo_moped.63" vType="moped" vaporized=""/>
    <tripinfo id="moped.62" depart="91.00" departLane="beg_0" departPos="2.20" departSpeed="0.00" departDelay="29.00" arrival="221.00" arrivalLane="end_1" arrivalPos="10.00" arrivalSpeed="8.99" duration="130.00" routeLength="507.80" waitSteps="71" timeLoss="94.91" rerouteNo="0" devices="tripinfo_moped.62" vType="moped" vaporized=""/>
    <tripinfo id="moped.57" depart="84.00" departLane="beg_0" departPos="2.20" departSpeed="0.00" departDelay="27.00" arrival="221.00" arrivalLane="end_0" arrivalPos="10.00" arrivalSpeed="9.44" duration="137.00" routeLength="507.80" waitSteps="79" timeLoss="106.18" rerouteNo="0" devices="tripinfo_moped.57" vType="moped" vaporized=""/>
    <tripinfo id="moped.58" depart="85.00" departLane="beg_1" departPos="2.20" departSpeed="0.00" departDelay="27.00" arrival="221.00" arrivalLane="end_0" arrivalPos="10.00" arrivalSpeed="8.74" duration="136.00" routeLength="507.80" waitSteps="76" timeLoss="101.65" rerouteNo="0" devices="tripinfo_moped.58" vType="moped" vaporized=""/>
    <tripinfo id="moped.59" depart="87.00" departLane="beg_0" departPos="2.20" departSpeed="0.00" departDelay="28.00" arrival="222.00" arrivalLane="end_1" arrivalPos="10.00" arrivalSpeed="8.68" duration="135.00" routeLength="507.80" waitSteps="75" timeLoss="94.44" rerouteNo="0" devices="tripinfo_moped.59" vType="moped" vaporized=""/>
    <tripinfo id="moped.55" depart="80.00" departLane="beg_0" departPos="2.20" departSpeed="0.00" departDelay="25.00" arrival="222.00" arrivalLane="end_0" arrivalPos="10.00" arrivalSpeed="8.97" duration="142.00" routeLength="507.80" waitSteps="79" timeLoss="104.41" rerouteNo="0" devices="tripinfo_moped.55" vType="moped" vaporized=""/>
    <tripinfo id="moped.68" depart="98.00" departLane="beg_1" departPos="2.20" departSpeed="0.00" departDelay="30.00" arrival="223.00" arrivalLane="end_0" arrivalPos="10.00" arrivalSpeed="9.30" duration="125.00" routeLength="507.80" waitSteps="68" timeLoss="91.94" rerouteNo="0" devices="tripinfo_moped.68" vType="moped" vaporized=""/>
    <tripinfo id="moped.50" depart="73.00" departLane="beg_0" departPos="2.20" departSpeed="0.00" departDelay="23.00" arrival="223.00" arrivalLane="end_0" arrivalPos="10.00" arrivalSpeed="7.74" duration="150.00" routeLength="507.80" waitSteps="73" timeLoss="85.11" rerouteNo="0" devices="tripinfo_moped.50" vType="moped" vaporized=""/>
    <tripinfo id="moped.73" depart="103.00" departLane="beg_1" departPos="2.20" departSpeed="0.00" departDelay="30.00" arrival="223.00" arrivalLane="end_1" arrivalPos="10.00" arrivalSpeed="8.82" duration="120.00" routeLength="507.80" waitSteps="67" timeLoss="88.41" rerouteNo="0" devices="tripinfo_moped.73" vType="moped" vaporized=""/>
    <tripinfo id="moped.69" depart="99.00" departLane="beg_1" departPos="2.20" departSpeed="0.00" departDelay="30.00" arrival="223.00" arrivalLane="end_1" arrivalPos="10.00" arrivalSpeed="9.24" duration="124.00" routeLength="507.80" waitSteps="70" timeLoss="89.42" rerouteNo="0" devices="tripinfo_moped.69" vType="moped" vaporized=""/>
    <tripinfo id="moped.56" depart="81.00" departLane="beg_1" departPos="2.20" departSpeed="0.00" departDelay="25.00" arrival="224.00" arrivalLane="end_1" arrivalPos="10.00" arrivalSpeed="9.56" duration="143.00" routeLength="507.80" waitSteps="74" timeLoss="89.73" rerouteNo="0" devices="tripinfo_moped.56" vType="moped" vaporized=""/>
    <tripinfo id="moped.49" depart="71.00" departLane="beg_1" departPos="2.20" departSpeed="0.00" departDelay="22.00" arrival="224.00" arrivalLane="end_0" arrivalPos="10.00" arrivalSpeed="7.47" duration="153.00" routeLength="507.80" waitSteps="73" timeLoss="85.67" rerouteNo="0" devices="tripinfo_moped.49" vType="moped" vaporized=""/>
    <tripinfo id="moped.52" depart="77.00" departLane="beg_0" departPos="2.20" departSpeed="0.00" departDelay="25.00" arrival="225.00" arrivalLane="end_0" arrivalPos="10.00" arrivalSpeed="9.99" duration="148.00" routeLength="507.80" waitSteps="72" timeLoss="112.74" rerouteNo="0" devices="tripinfo_moped.52" vType="moped" vaporized=""/>
    <tripinfo id="moped.64" depart="94.00" departLane="beg_0" departPos="2.20" departSpeed="0.00" departDelay="30.00" arrival="225.00" arrivalLane="end_0" arrivalPos="10.00" arrivalSpeed="7.57" duration="131.00" routeLength="507.80" waitSteps="70" timeLoss="85.79" rerouteNo="0" devices="tripinfo_moped.64" vType="moped" vaporized=""/>
    <tripinfo id="moped.67" depart="97.00" departLane="beg_1" departPos="2.20" departSpeed="0.00" departDelay="30.00" arrival="225.00" arrivalLane="end_0" arrivalPos="10.00" arrivalSpeed="9.53" duration="128.00" routeLength="507.80" waitSteps="61" timeLoss="78.59" rerouteNo="0" devices="tripinfo_moped.67" vType="moped" vaporized=""/>
    <tripinfo id="moped.77" depart="107.00" departLane="beg_1" departPos="2.20" departSpeed="0.00" departDelay="30.00" arrival="225.00" arrivalLane="end_1" arrivalPos="10.00" arrivalSpeed="10.58" duration="118.00" routeLength="507.80" waitSteps="62" timeLoss="78.56" rerouteNo="0" devices="tripinfo_moped.77" vType="moped" vaporized=""/>
    <tripinfo id="moped.75" depart="104.00" departLane="beg_0" departPos="2.20" departSpeed="0.00" departDelay="29.00" arrival="225.00" arrivalLane="end_1" arrivalPos="10.00" arrivalSpeed="9.76" duration="121.00" routeLength="507.80" waitSteps="63" timeLoss="82.06" rerouteNo="0" devices="tripinfo_moped.75" vType="moped" vaporized=""/>
    <tripinfo id="moped.70" depart="99.00" departLane="beg_0" departPos="2.20" departSpeed="0.00" departDelay="29.00" arrival="225.00" arrivalLane="end_1" arrivalPos="10.00" arrivalSpeed="8.82" duration="126.00" routeLength="507.80" waitSteps="71" timeLoss="91.71" rerouteNo="0" devices="tripinfo_moped.70" vType="moped" vaporized=""/>
    <tripinfo id="moped.82" depart="112.00" departLane="beg_1" departPos="2.20" departSpeed="0.00" departDelay="30.00" arrival="226.00" arrivalLane="end_1" arrivalPos="10.00" arrivalSpeed="10.32" duration="114.00" routeLength="507.80" waitSteps="60" timeLoss="78.89" rerouteNo="0" devices="tripinfo_moped.82" vType="moped" vaporized=""/>
    <tripinfo id="moped.79" depart="109.00" departLane="beg_0" departPos="2.20" departSpeed="0.00" departDelay="30.00" arrival="226.00" arrivalLane="end_1" arrivalPos="10.00" arrivalSpeed="10.13" duration="117.00" routeLength="507.80" waitSteps="62" timeLoss="86.29" rerouteNo="0" devices="tripinfo_moped.79" vType="moped" vaporized=""/>
    <tripinfo id="moped.66" depart="95.00" departLane="beg_0" departPos="2.20" departSpeed="0.00" departDelay="29.00" arrival="227.00" arrivalLane="end_0" arrivalPos="10.00" arrivalSpeed="9.79" duration="132.00" routeLength="507.80" waitSteps="65" timeLoss="80.28" rerouteNo="0" devices="tripinfo_moped.66" vType="moped" vaporized=""/>
    <tripinfo id="moped.76" depart="107.00" departLane="beg_0" departPos="2.20" departSpeed="0.00" departDelay="31.00" arrival="227.00" arrivalLane="end_0" arrivalPos="10.00" arrivalSpeed="10.74" duration="120.00" routeLength="507.80" waitSteps="60" timeLoss="86.14" rerouteNo="0" devices="tripinfo_moped.76" vType="moped" vaporized=""/>
    <tripinfo id="moped.65" depart="94.00" departLane="beg_1" departPos="2.20" departSpeed="0.00" departDelay="29.00" arrival="227.00" arrivalLane="end_0" arrivalPos="10.00" arrivalSpeed="8.52" duration="133.00" routeLength="507.80" waitSteps="62" timeLoss="76.14" rerouteNo="0" devices="tripinfo_moped.65" vType="moped" vaporized=""/>
    <tripinfo id="moped.71" depart="100.00" departLane="beg_0" departPos="2.20" departSpeed="0.00" departDelay="29.00" arrival="227.00" arrivalLane="end_1" arrivalPos="10.00" arrivalSpeed="9.84" duration="127.00" routeLength="507.80" waitSteps="69" timeLoss="86.78" rerouteNo="0" devices="tripinfo_moped.71" vType="moped" vaporized=""/>
    <tripinfo id="moped.80" depart="111.00" departLane="beg_1" departPos="2.20" departSpeed="0.00" departDelay="31.00" arrival="228.00" arrivalLane="end_1" arrivalPos="10.00" arrivalSpeed="11.19" duration="117.00" routeLength="507.80" waitSteps="61" timeLoss="83.23" rerouteNo="0" devices="tripinfo_moped.80" vType="moped" vaporized=""/>
    <tripinfo id="moped.78" depart="108.00" departLane="beg_1" departPos="2.20" departSpeed="0.00" departDelay="30.00" arrival="228.00" arrivalLane="end_1" arrivalPos="10.00" arrivalSpeed="11.14" duration="120.00" routeLength="507.80" waitSteps="58" timeLoss="83.67" rerouteNo="0" devices="tripinfo_moped.78" vType="moped" vaporized=""/>
    <tripinfo id="moped.74" depart="103.00" departLane="beg_0" departPos="2.20" departSpeed="0.00" departDelay="29.00" arrival="228.00" arrivalLane="end_0" arrivalPos="10.00" arrivalSpeed="9.56" duration="125.00" routeLength="507.80" waitSteps="65" timeLoss="82.58" rerouteNo="0" devices="tripinfo_moped.74" vType="moped" vaporized=""/>
    <tripinfo id="moped.84" depart="116.00" departLane="beg_0" departPos="2.20" departSpeed="0.00" departDelay="32.00" arrival="229.00" arrivalLane="end_0" arrivalPos="10.00" arrivalSpeed="10.33" duration="113.00" routeLength="507.80" waitSteps="59" timeLoss="81.95" rerouteNo="0" devices="tripinfo_moped.84" vType="moped" vaporized=""/>
    <tripinfo id="moped.81" depart="112.00" departLane="beg_0" departPos="2.20" departSpeed="0.00" departDelay="31.00" arrival="229.00" arrivalLane="end_0" arrivalPos="10.00" arrivalSpeed="10.06" duration="117.00" routeLength="507.80" waitSteps="59" timeLoss="79.58" rerouteNo="0" devices="tripinfo_moped.81" vType="moped" vaporized=""/>
    <tripinfo id="moped.72" depart="102.00" departLane="beg_1" departPos="2.20" departSpeed="0.00" departDelay="30.00" arrival="229.00" arrivalLane="end_1" arrivalPos="10.00" arrivalSpeed="10.23" duration="127.00" routeLength="507.80" waitSteps="65" timeLoss="81.85" rerouteNo="0" devices="tripinfo_moped.72" vType="moped" vaporized=""/>
    <tripinfo id="moped.86" depart="119.00" departLane="beg_0" departPos="2.20" departSpeed="0.00" departDelay="33.00" arrival="229.00" arrivalLane="end_1" arrivalPos="10.00" arrivalSpeed="10.49" duration="110.00" routeLength="507.80" waitSteps="50" timeLoss="73.55" rerouteNo="0" devices="tripinfo_moped.86" vType="moped" vaporized=""/>
    <tripinfo id="moped.90" depart="121.00" departLane="beg_1" departPos="2.20" departSpeed="0.00" departDelay="31.00" arrival="230.00" arrivalLane="end_1" arrivalPos="10.00" arrivalSpeed="11.66" duration="109.00" routeLength="507.80" waitSteps="53" timeLoss="73.41" rerouteNo="0" devices="tripinfo_moped.90" vType="moped" vaporized=""/>