<?xml version="1.0" encoding="UTF-8"?>

<!-- generated on Tue Sep 13 12:07:54 2016 by SUMO Version dev-SVN-r21424
<?xml version="1.0" encoding="UTF-8"?>

<configuration xmlns:xsi="http://www.w3.org/2001/XMLSchema-instance" xsi:noNamespaceSchemaLocation="http://sumo.dlr.de/xsd/sumoConfiguration.xsd">

    <input>
        <net-file value="three_split.net.xml"/>
        <route-files value="input_routes.rou.xml"/>
        <additional-files value="input_additional.add.xml,input_additional2.add.xml"/>
    </input>

    <output>
        <netstate-dump value="rawdump.xml"/>
    </output>

    <time>
        <step-length value="1.0"/>
    </time>

    <processing>
        <step-method.ballistic value="true"/>
    </processing>

    <report>
        <xml-validation value="never"/>
        <duration-log.disable value="true"/>
        <no-step-log value="true"/>
    </report>

</configuration>
-->

<instantE1>
    <instantOut id="beg_end" time="23.61" state="enter" vehID="leader" speed="20.00" length="5.00" type="leader"/>
    <instantOut id="beg_end" time="23.86" state="leave" vehID="leader" speed="20.00" length="5.00" type="leader" occupancy="0.25"/>
    <instantOut id="beg_end" time="24.40" state="enter" vehID="follower" speed="19.14" length="5.00" type="follower" gap="0.55"/>
    <instantOut id="beg_end" time="24.66" state="leave" vehID="follower" speed="19.14" length="5.00" type="follower" occupancy="0.26"/>
</instantE1>
