<?xml version="1.0" encoding="UTF-8"?>

<!-- generated on Thu Mar  3 16:31:32 2016 by SUMO Version dev-SVN-r20128
<?xml version="1.0" encoding="UTF-8"?>

<configuration xmlns:xsi="http://www.w3.org/2001/XMLSchema-instance" xsi:noNamespaceSchemaLocation="http://sumo.dlr.de/xsd/sumoConfiguration.xsd">

    <input>
        <net-file value="net.net.xml"/>
        <route-files value="input_routes.rou.xml"/>
    </input>

    <output>
        <tripinfo-output value="tripinfos.xml"/>
    </output>

    <processing>
        <lateral-resolution value="0.64"/>
    </processing>

    <report>
        <xml-validation value="never"/>
        <no-step-log value="true"/>
    </report>

</configuration>
-->

<tripinfos xmlns:xsi="http://www.w3.org/2001/XMLSchema-instance" xsi:noNamespaceSchemaLocation="http://sumo.dlr.de/xsd/tripinfo_file.xsd">
    <tripinfo id="mixed.8" depart="10.00" departLane="beg_0" departPos="5.10" departSpeed="0.00" departDelay="2.00" arrival="215.00" arrivalLane="end_0" arrivalPos="200.00" arrivalSpeed="17.08" duration="205.00" routeLength="494.90" waitSteps="154" timeLoss="176.05" rerouteNo="0" devices="tripinfo_mixed.8" vType="car" vaporized=""/>
    <tripinfo id="mixed.11" depart="16.00" departLane="beg_0" departPos="5.10" departSpeed="0.00" departDelay="5.00" arrival="219.00" arrivalLane="end_0" arrivalPos="200.00" arrivalSpeed="14.10" duration="203.00" routeLength="494.90" waitSteps="156" timeLoss="169.52" rerouteNo="0" devices="tripinfo_mixed.11" vType="car" vaporized=""/>
    <tripinfo id="mixed.6" depart="7.00" departLane="beg_1" departPos="2.20" departSpeed="0.00" departDelay="1.00" arrival="221.00" arrivalLane="end_0" arrivalPos="200.00" arrivalSpeed="16.44" duration="214.00" routeLength="497.80" waitSteps="163" timeLoss="183.13" rerouteNo="0" devices="tripinfo_mixed.6" vType="moped" vaporized=""/>
    <tripinfo id="mixed.5" depart="6.00" departLane="beg_0" departPos="5.10" departSpeed="0.00" departDelay="1.00" arrival="221.00" arrivalLane="end_0" arrivalPos="200.00" arrivalSpeed="13.36" duration="215.00" routeLength="494.90" waitSteps="161" timeLoss="179.66" rerouteNo="0" devices="tripinfo_mixed.5" vType="car" vaporized=""/>
    <tripinfo id="mixed.17" depart="27.00" departLane="beg_1" departPos="5.10" departSpeed="0.00" departDelay="10.00" arrival="222.00" arrivalLane="end_1" arrivalPos="200.00" arrivalSpeed="13.57" duration="195.00" routeLength="494.90" waitSteps="145" timeLoss="159.02" rerouteNo="0" devices="tripinfo_mixed.17" vType="car" vaporized=""/>
    <tripinfo id="mixed.19" depart="31.00" departLane="beg_1" departPos="5.10" departSpeed="0.00" departDelay="12.00" arrival="223.00" arrivalLane="end_0" arrivalPos="200.00" arrivalSpeed="13.57" duration="192.00" routeLength="494.90" waitSteps="142" timeLoss="157.90" rerouteNo="0" devices="tripinfo_mixed.19" vType="car" vaporized=""/>
    <tripinfo id="mixed.0" depart="0.00" departLane="beg_0" departPos="2.20" departSpeed="0.00" departDelay="0.00" arrival="225.00" arrivalLane="end_0" arrivalPos="200.00" arrivalSpeed="9.96" duration="225.00" routeLength="497.80" waitSteps="162" timeLoss="176.50" rerouteNo="0" devices="tripinfo_mixed.0" vType="moped" vaporized=""/>
    <tripinfo id="mixed.3" depart="4.00" departLane="beg_1" departPos="2.20" departSpeed="0.00" departDelay="1.00" arrival="225.00" arrivalLane="end_0" arrivalPos="200.00" arrivalSpeed="13.56" duration="221.00" routeLength="497.80" waitSteps="162" timeLoss="183.77" rerouteNo="0" devices="tripinfo_mixed.3" vType="moped" vaporized=""/>
    <tripinfo id="mixed.14" depart="20.00" departLane="beg_1" departPos="2.20" departSpeed="0.00" departDelay="6.00" arrival="227.00" arrivalLane="end_1" arrivalPos="200.00" arrivalSpeed="13.94" duration="207.00" routeLength="497.80" waitSteps="146" timeLoss="171.89" rerouteNo="0" devices="tripinfo_mixed.14" vType="moped" vaporized=""/>
    <tripinfo id="mixed.10" depart="14.00" departLane="beg_1" departPos="2.20" departSpeed="0.00" departDelay="4.00" arrival="229.00" arrivalLane="end_0" arrivalPos="200.00" arrivalSpeed="9.40" duration="215.00" routeLength="497.80" waitSteps="150" timeLoss="164.14" rerouteNo="0" devices="tripinfo_mixed.10" vType="moped" vaporized=""/>
    <tripinfo id="mixed.15" depart="23.00" departLane="beg_0" departPos="2.20" departSpeed="0.00" departDelay="8.00" arrival="229.00" arrivalLane="end_1" arrivalPos="200.00" arrivalSpeed="15.50" duration="206.00" routeLength="497.80" waitSteps="144" timeLoss="173.15" rerouteNo="0" devices="tripinfo_mixed.15" vType="moped" vaporized=""/>
    <tripinfo id="mixed.20" depart="31.00" departLane="beg_0" departPos="5.10" departSpeed="0.00" departDelay="11.00" arrival="229.00" arrivalLane="end_1" arrivalPos="200.00" arrivalSpeed="17.19" duration="198.00" routeLength="494.90" waitSteps="141" timeLoss="168.98" rerouteNo="0" devices="tripinfo_mixed.20" vType="car" vaporized=""/>
    <tripinfo id="mixed.7" depart="10.00" departLane="beg_1" departPos="2.20" departSpeed="0.00" departDelay="3.00" arrival="230.00" arrivalLane="end_0" arrivalPos="200.00" arrivalSpeed="9.09" duration="220.00" routeLength="497.80" waitSteps="153" timeLoss="167.97" rerouteNo="0" devices="tripinfo_mixed.7" vType="moped" vaporized=""/>
    <tripinfo id="mixed.9" depart="13.00" departLane="beg_0" departPos="5.10" departSpeed="0.00" departDelay="4.00" arrival="231.00" arrivalLane="end_0" arrivalPos="200.00" arrivalSpeed="10.97" duration="218.00" routeLength="494.90" waitSteps="151" timeLoss="173.19" rerouteNo="0" devices="tripinfo_mixed.9" vType="car" vaporized=""/>
    <tripinfo id="mixed.25" depart="40.00" departLane="beg_1" departPos="5.10" departSpeed="0.00" departDelay="15.00" arrival="232.00" arrivalLane="end_1" arrivalPos="200.00" arrivalSpeed="11.77" duration="192.00" routeLength="494.90" waitSteps="132" timeLoss="153.04" rerouteNo="0" devices="tripinfo_mixed.25" vType="car" vaporized=""/>
    <tripinfo id="mixed.13" depart="18.00" departLane="beg_0" departPos="2.20" departSpeed="0.00" departDelay="5.00" arrival="233.00" arrivalLane="end_0" arrivalPos="200.00" arrivalSpeed="11.50" duration="215.00" routeLength="497.80" waitSteps="144" timeLoss="184.72" rerouteNo="0" devices="tripinfo_mixed.13" vType="moped" vaporized=""/>
    <tripinfo id="mixed.38" depart="60.00" departLane="beg_1" departPos="2.20" departSpeed="0.00" departDelay="22.00" arrival="233.00" arrivalLane="end_1" arrivalPos="200.00" arrivalSpeed="13.26" duration="173.00" routeLength="497.80" waitSteps="115" timeLoss="142.70" rerouteNo="0" devices="tripinfo_mixed.38" vType="moped" vaporized=""/>
    <tripinfo id="mixed.37" depart="59.00" departLane="beg_0" departPos="2.20" departSpeed="0.00" departDelay="22.00" arrival="234.00" arrivalLane="end_1" arrivalPos="200.00" arrivalSpeed="14.25" duration="175.00" routeLength="497.80" waitSteps="111" timeLoss="144.97" rerouteNo="0" devices="tripinfo_mixed.37" vType="moped" vaporized=""/>
    <tripinfo id="mixed.12" depart="17.00" departLane="beg_1" departPos="2.20" departSpeed="0.00" departDelay="5.00" arrival="235.00" arrivalLane="end_0" arrivalPos="200.00" arrivalSpeed="9.96" duration="218.00" routeLength="497.80" waitSteps="151" timeLoss="168.92" rerouteNo="0" devices="tripinfo_mixed.12" vType="moped" vaporized=""/>
    <tripinfo id="mixed.4" depart="4.00" departLane="beg_0" departPos="2.20" departSpeed="0.00" departDelay="0.00" arrival="235.00" arrivalLane="end_0" arrivalPos="200.00" arrivalSpeed="7.16" duration="231.00" routeLength="497.80" waitSteps="153" timeLoss="164.69" rerouteNo="0" devices="tripinfo_mixed.4" vType="moped" vaporized=""/>
    <tripinfo id="mixed.31" depart="48.00" departLane="beg_1" departPos="2.20" departSpeed="0.00" departDelay="17.00" arrival="236.00" arrivalLane="end_1" arrivalPos="200.00" arrivalSpeed="13.07" duration="188.00" routeLength="497.80" waitSteps="125" timeLoss="157.38" rerouteNo="0" devices="tripinfo_mixed.31" vType="moped" vaporized=""/>
    <tripinfo id="mixed.21" depart="34.00" departLane="beg_1" departPos="5.10" departSpeed="0.00" departDelay="13.00" arrival="237.00" arrivalLane="end_0" arrivalPos="200.00" arrivalSpeed="10.94" duration="203.00" routeLength="494.90" waitSteps="139" timeLoss="156.74" rerouteNo="0" devices="tripinfo_mixed.21" vType="car" vaporized=""/>
    <tripinfo id="mixed.18" depart="27.00" departLane="beg_0" departPos="5.10" departSpeed="0.00" departDelay="9.00" arrival="237.00" arrivalLane="end_0" arrivalPos="200.00" arrivalSpeed="9.36" duration="210.00" routeLength="494.90" waitSteps="142" timeLoss="161.49" rerouteNo="0" devices="tripinfo_mixed.18" vType="car" vaporized=""/>
    <tripinfo id="mixed.28" depart="44.00" departLane="beg_1" departPos="2.20" departSpeed="0.00" departDelay="16.00" arrival="238.00" arrivalLane="end_0" arrivalPos="200.00" arrivalSpeed="11.48" duration="194.00" routeLength="497.80" waitSteps="134" timeLoss="163.90" rerouteNo="0" devices="tripinfo_mixed.28" vType="moped" vaporized=""/>
    <tripinfo id="mixed.45" depart="71.00" departLane="beg_1" departPos="5.10" departSpeed="0.00" departDelay="26.00" arrival="238.00" arrivalLane="end_1" arrivalPos="200.00" arrivalSpeed="13.26" duration="167.00" routeLength="494.90" waitSteps="110" timeLoss="130.32" rerouteNo="0" devices="tripinfo_mixed.45" vType="car" vaporized=""/>
    <tripinfo id="mixed.52" depart="81.00" departLane="beg_1" departPos="5.10" departSpeed="0.00" departDelay="29.00" arrival="239.00" arrivalLane="end_1" arrivalPos="200.00" arrivalSpeed="13.37" duration="158.00" routeLength="494.90" waitSteps="103" timeLoss="123.73" rerouteNo="0" devices="tripinfo_mixed.52" vType="car" vaporized=""/>
    <tripinfo id="mixed.23" depart="36.00" departLane="beg_1" departPos="2.20" departSpeed="0.00" departDelay="13.00" arrival="240.00" arrivalLane="end_0" arrivalPos="200.00" arrivalSpeed="15.46" duration="204.00" routeLength="497.80" waitSteps="135" timeLoss="173.32" rerouteNo="0" devices="tripinfo_mixed.23" vType="moped" vaporized=""/>
    <tripinfo id="mixed.32" depart="49.00" departLane="beg_0" departPos="5.10" departSpeed="0.00" departDelay="17.00" arrival="240.00" arrivalLane="end_1" arrivalPos="200.00" arrivalSpeed="14.06" duration="191.00" routeLength="494.90" waitSteps="134" timeLoss="157.15" rerouteNo="0" devices="tripinfo_mixed.32" vType="car" vaporized=""/>
    <tripinfo id="mixed.30" depart="45.00" departLane="beg_0" departPos="2.20" departSpeed="0.00" departDelay="15.00" arrival="241.00" arrivalLane="end_0" arrivalPos="200.00" arrivalSpeed="15.17" duration="196.00" routeLength="497.80" waitSteps="136" timeLoss="163.44" rerouteNo="0" devices="tripinfo_mixed.30" vType="moped" vaporized=""/>
    <tripinfo id="mixed.55" depart="88.00" departLane="beg_1" departPos="5.10" departSpeed="0.00" departDelay="33.00" arrival="241.00" arrivalLane="end_1" arrivalPos="200.00" arrivalSpeed="16.38" duration="153.00" routeLength="494.90" waitSteps="95" timeLoss="123.58" rerouteNo="0" devices="tripinfo_mixed.55" vType="car" vaporized=""/>
    <tripinfo id="mixed.40" depart="63.00" departLane="beg_1" departPos="2.20" departSpeed="0.00" departDelay="23.00" arrival="242.00" arrivalLane="end_0" arrivalPos="200.00" arrivalSpeed="13.58" duration="179.00" routeLength="497.80" waitSteps="111" timeLoss="142.55" rerouteNo="0" devices="tripinfo_mixed.40" vType="moped" vaporized=""/>
    <tripinfo id="mixed.46" depart="73.00" departLane="beg_1" departPos="2.20" departSpeed="0.00" departDelay="27.00" arrival="243.00" arrivalLane="end_0" arrivalPos="200.00" arrivalSpeed="13.66" duration="170.00" routeLength="497.80" waitSteps="107" timeLoss="139.53" rerouteNo="0" devices="tripinfo_mixed.46" vType="moped" vaporized=""/>
    <tripinfo id="mixed.35" depart="56.00" departLane="beg_0" departPos="2.20" departSpeed="0.00" departDelay="21.00" arrival="243.00" arrivalLane="end_0" arrivalPos="200.00" arrivalSpeed="14.02" duration="187.00" routeLength="497.80" waitSteps="125" timeLoss="153.52" rerouteNo="0" devices="tripinfo_mixed.35" vType="moped" vaporized=""/>
    <tripinfo id="mixed.16" depart="23.00" departLane="beg_1" departPos="2.20" departSpeed="0.00" departDelay="7.00" arrival="244.00" arrivalLane="end_0" arrivalPos="200.00" arrivalSpeed="7.39" duration="221.00" routeLength="497.80" waitSteps="140" timeLoss="156.06" rerouteNo="0" devices="tripinfo_mixed.16" vType="moped" vaporized=""/>
    <tripinfo id="mixed.56" depart="89.00" departLane="beg_0" departPos="5.10" departSpeed="0.00" departDelay="33.00" arrival="244.00" arrivalLane="end_1" arrivalPos="200.00" arrivalSpeed="14.54" duration="155.00" routeLength="494.90" waitSteps="85" timeLoss="120.90" rerouteNo="0" devices="tripinfo_mixed.56" vType="car" vaporized=""/>
    <tripinfo id="mixed.43" depart="70.00" departLane="beg_0" departPos="2.20" departSpeed="0.00" departDelay="27.00" arrival="245.00" arrivalLane="end_0" arrivalPos="200.00" arrivalSpeed="11.22" duration="175.00" routeLength="497.80" waitSteps="96" timeLoss="132.34" rerouteNo="0" devices="tripinfo_mixed.43" vType="moped" vaporized=""/>
    <tripinfo id="mixed.61" depart="96.00" departLane="beg_1" departPos="2.20" departSpeed="0.00" departDelay="35.00" arrival="246.00" arrivalLane="end_1" arrivalPos="200.00" arrivalSpeed="16.47" duration="150.00" routeLength="497.80" waitSteps="85" timeLoss="119.11" rerouteNo="0" devices="tripinfo_mixed.61" vType="moped" vaporized=""/>
    <tripinfo id="mixed.26" depart="41.00" departLane="beg_0" departPos="2.20" departSpeed="0.00" departDelay="15.00" arrival="247.00" arrivalLane="end_0" arrivalPos="200.00" arrivalSpeed="13.38" duration="206.00" routeLength="497.80" waitSteps="136" timeLoss="171.93" rerouteNo="0" devices="tripinfo_mixed.26" vType="moped" vaporized=""/>
    <tripinfo id="mixed.53" depart="82.00" departLane="beg_1" departPos="2.20" departSpeed="0.00" departDelay="29.00" arrival="248.00" arrivalLane="end_0" arrivalPos="200.00" arrivalSpeed="9.62" duration="166.00" routeLength="497.80" waitSteps="96" timeLoss="114.83" rerouteNo="0" devices="tripinfo_mixed.53" vType="moped" vaporized=""/>
    <tripinfo id="mixed.27" depart="42.00" departLane="beg_0" departPos="2.20" departSpeed="0.00" departDelay="15.00" arrival="249.00" arrivalLane="end_0" arrivalPos="200.00" arrivalSpeed="10.30" duration="207.00" routeLength="497.80" waitSteps="136" timeLoss="159.53" rerouteNo="0" devices="tripinfo_mixed.27" vType="moped" vaporized=""/>
    <tripinfo id="mixed.44" depart="71.00" departLane="beg_0" departPos="5.10" departSpeed="0.00" departDelay="27.00" arrival="249.00" arrivalLane="end_1" arrivalPos="200.00" arrivalSpeed="13.57" duration="178.00" routeLength="494.90" waitSteps="110" timeLoss="142.99" rerouteNo="0" devices="tripinfo_mixed.44" vType="car" vaporized=""/>
    <tripinfo id="mixed.47" depart="74.00" departLane="beg_0" departPos="2.20" departSpeed="0.00" departDelay="27.00" arrival="249.00" arrivalLane="end_1" arrivalPos="200.00" arrivalSpeed="10.04" duration="175.00" routeLength="497.80" waitSteps="104" timeLoss="138.59" rerouteNo="0" devices="tripinfo_mixed.47" vType="moped" vaporized=""/>
    <tripinfo id="mixed.39" depart="60.00" departLane="beg_0" departPos="2.20" departSpeed="0.00" departDelay="21.00" arrival="250.00" arrivalLane="end_1" arrivalPos="200.00" arrivalSpeed="14.47" duration="190.00" routeLength="497.80" waitSteps="108" timeLoss="159.50" rerouteNo="0" devices="tripinfo_mixed.39" vType="moped" vaporized=""/>
    <tripinfo id="mixed.22" depart="36.00" departLane="beg_0" departPos="2.20" departSpeed="0.00" departDelay="14.00" arrival="252.00" arrivalLane="end_0" arrivalPos="200.00" arrivalSpeed="14.53" duration="216.00" routeLength="497.80" waitSteps="136" timeLoss="185.44" rerouteNo="0" devices="tripinfo_mixed.22" vType="moped" vaporized=""/>
    <tripinfo id="mixed.54" depart="86.00" departLane="beg_0" departPos="5.10" departSpeed="0.00" departDelay="32.00" arrival="254.00" arrivalLane="end_0" arrivalPos="200.00" arrivalSpeed="14.88" duration="168.00" routeLength="494.90" waitSteps="102" timeLoss="135.35" rerouteNo="0" devices="tripinfo_mixed.54" vType="car" vaporized=""/>
    <tripinfo id="mixed.24" depart="37.00" departLane="beg_0" departPos="2.20" departSpeed="0.00" departDelay="13.00" arrival="254.00" arrivalLane="end_1" arrivalPos="200.00" arrivalSpeed="13.26" duration="217.00" routeLength="497.80" waitSteps="136" timeLoss="179.87" rerouteNo="0" devices="tripinfo_mixed.24" vType="moped" vaporized=""/>
    <tripinfo id="mixed.1" depart="1.00" departLane="beg_1" departPos="2.20" departSpeed="0.00" departDelay="0.00" arrival="256.00" arrivalLane="end_0" arrivalPos="200.00" arrivalSpeed="4.73" duration="255.00" routeLength="497.80" waitSteps="140" timeLoss="154.29" rerouteNo="0" devices="tripinfo_mixed.1" vType="moped" vaporized=""/>
    <tripinfo id="mixed.58" depart="92.00" departLane="beg_0" departPos="5.10" departSpeed="0.00" departDelay="34.00" arrival="256.00" arrivalLane="end_0" arrivalPos="200.00" arrivalSpeed="15.70" duration="164.00" routeLength="494.90" waitSteps="100" timeLoss="133.10" rerouteNo="0" devices="tripinfo_mixed.58" vType="car" vaporized=""/>
    <tripinfo id="mixed.57" depart="91.00" departLane="beg_1" departPos="2.20" departSpeed="0.00" departDelay="34.00" arrival="257.00" arrivalLane="end_1" arrivalPos="200.00" arrivalSpeed="8.95" duration="166.00" routeLength="497.80" waitSteps="81" timeLoss="112.24" rerouteNo="0" devices="tripinfo_mixed.57" vType="moped" vaporized=""/>
    <tripinfo id="mixed.71" depart="116.00" departLane="beg_1" departPos="5.10" departSpeed="0.00" departDelay="45.00" arrival="259.00" arrivalLane="end_1" arrivalPos="200.00" arrivalSpeed="13.80" duration="143.00" routeLength="494.90" waitSteps="76" timeLoss="114.55" rerouteNo="0" devices="tripinfo_mixed.71" vType="car" vaporized=""/>
    <tripinfo id="mixed.51" depart="81.00" departLane="beg_0" departPos="2.20" departSpeed="0.00" departDelay="30.00" arrival="261.00" arrivalLane="end_0" arrivalPos="200.00" arrivalSpeed="10.75" duration="180.00" routeLength="497.80" waitSteps="97" timeLoss="133.90" rerouteNo="0" devices="tripinfo_mixed.51" vType="moped" vaporized=""/>
    <tripinfo id="mixed.75" depart="123.00" departLane="beg_1" departPos="5.10" departSpeed="0.00" departDelay="48.00" arrival="261.00" arrivalLane="end_1" arrivalPos="200.00" arrivalSpeed="12.26" duration="138.00" routeLength="494.90" waitSteps="71" timeLoss="97.34" rerouteNo="0" devices="tripinfo_mixed.75" vType="car" vaporized=""/>
    <tripinfo id="mixed.79" depart="131.00" departLane="beg_1" departPos="5.10" departSpeed="0.00" departDelay="52.00" arrival="262.00" arrivalLane="end_1" arrivalPos="200.00" arrivalSpeed="12.05" duration="131.00" routeLength="494.90" waitSteps="65" timeLoss="93.48" rerouteNo="0" devices="tripinfo_mixed.79" vType="car" vaporized=""/>
    <tripinfo id="mixed.64" depart="104.00" departLane="beg_0" departPos="5.10" departSpeed="0.00" departDelay="40.00" arrival="262.00" arrivalLane="end_1" arrivalPos="200.00" arrivalSpeed="13.24" duration="158.00" routeLength="494.90" waitSteps="84" timeLoss="122.81" rerouteNo="0" devices="tripinfo_mixed.64" vType="car" vaporized=""/>
    <tripinfo id="mixed.2" depart="2.00" departLane="beg_0" departPos="2.20" departSpeed="0.00" departDelay="0.00" arrival="263.00" arrivalLane="end_0" arrivalPos="200.00" arrivalSpeed="4.15" duration="261.00" routeLength="497.80" waitSteps="136" timeLoss="150.12" rerouteNo="0" devices="tripinfo_mixed.2" vType="moped" vaporized=""/>
    <tripinfo id="mixed.81" depart="134.00" departLane="beg_1" departPos="5.10" departSpeed="0.00" departDelay="53.00" arrival="264.00" arrivalLane="end_1" arrivalPos="200.00" arrivalSpeed="17.05" duration="130.00" routeLength="494.90" waitSteps="64" timeLoss="103.81" rerouteNo="0" devices="tripinfo_mixed.81" vType="car" vaporized=""/>
    <tripinfo id="mixed.34" depart="52.00" departLane="beg_0" departPos="5.10" departSpeed="0.00" departDelay="18.00" arrival="265.00" arrivalLane="end_0" arrivalPos="200.00" arrivalSpeed="9.62" duration="213.00" routeLength="494.90" waitSteps="131" timeLoss="167.59" rerouteNo="0" devices="tripinfo_mixed.34" vType="car" vaporized=""/>
    <tripinfo id="mixed.70" depart="113.00" departLane="beg_1" departPos="5.10" departSpeed="0.00" departDelay="43.00" arrival="265.00" arrivalLane="end_1" arrivalPos="200.00" arrivalSpeed="11.04" duration="152.00" routeLength="494.90" waitSteps="78" timeLoss="107.36" rerouteNo="0" devices="tripinfo_mixed.70" vType="car" vaporized=""/>
    <tripinfo id="mixed.84" depart="140.00" departLane="beg_1" departPos="5.10" departSpeed="0.00" departDelay="56.00" arrival="265.00" arrivalLane="end_1" arrivalPos="200.00" arrivalSpeed="16.45" duration="125.00" routeLength="494.90" waitSteps="62" timeLoss="94.86" rerouteNo="0" devices="tripinfo_mixed.84" vType="car" vaporized=""/>
    <tripinfo id="mixed.77" depart="126.00" departLane="beg_1" departPos="2.20" departSpeed="0.00" departDelay="49.00" arrival="266.00" arrivalLane="end_0" arrivalPos="200.00" arrivalSpeed="10.95" duration="140.00" routeLength="497.80" waitSteps="69" timeLoss="110.01" rerouteNo="0" devices="tripinfo_mixed.77" vType="moped" vaporized=""/>
    <tripinfo id="mixed.36" depart="56.00" departLane="beg_1" departPos="2.20" departSpeed="0.00" departDelay="20.00" arrival="267.00" arrivalLane="end_0" arrivalPos="200.00" arrivalSpeed="6.69" duration="211.00" routeLength="497.80" waitSteps="116" timeLoss="139.92" rerouteNo="0" devices="tripinfo_mixed.36" vType="moped" vaporized=""/>
    <tripinfo id="mixed.63" depart="100.00" departLane="beg_1" departPos="2.20" departSpeed="0.00" departDelay="37.00" arrival="267.00" arrivalLane="end_0" arrivalPos="200.00" arrivalSpeed="6.90" duration="167.00" routeLength="497.80" waitSteps="84" timeLoss="127.75" rerouteNo="0" devices="tripinfo_mixed.63" vType="moped" vaporized=""/>
    <tripinfo id="mixed.88" depart="148.00" departLane="beg_0" departPos="5.10" departSpeed="0.00" departDelay="60.00" arrival="267.00" arrivalLane="end_1" arrivalPos="200.00" arrivalSpeed="13.11" duration="119.00" routeLength="494.90" waitSteps="54" timeLoss="82.56" rerouteNo="0" devices="tripinfo_mixed.88" vType="car" vaporized=""/>
    <tripinfo id="mixed.50" depart="77.00" departLane="beg_0" departPos="2.20" departSpeed="0.00" departDelay="27.00" arrival="269.00" arrivalLane="end_0" arrivalPos="200.00" arrivalSpeed="8.00" duration="192.00" routeLength="497.80" waitSteps="94" timeLoss="133.99" rerouteNo="0" devices="tripinfo_mixed.50" vType="moped" vaporized=""/>
    <tripinfo id="mixed.62" depart="100.00" departLane="beg_0" departPos="2.20" departSpeed="0.00" departDelay="38.00" arrival="269.00" arrivalLane="end_0" arrivalPos="200.00" arrivalSpeed="7.34" duration="169.00" routeLength="497.80" waitSteps="78" timeLoss="128.93" rerouteNo="0" devices="tripinfo_mixed.62" vType="moped" vaporized=""/>
    <tripinfo id="mixed.95" depart="159.00" departLane="beg_1" departPos="5.10" departSpeed="0.00" departDelay="64.00" arrival="269.00" arrivalLane="end_1" arrivalPos="200.00" arrivalSpeed="13.19" duration="110.00" routeLength="494.90" waitSteps="48" timeLoss="74.12" rerouteNo="0" devices="tripinfo_mixed.95" vType="car" vaporized=""/>
    <tripinfo id="mixed.73" depart="118.00" departLane="beg_1" departPos="2.20" departSpeed="0.00" departDelay="45.00" arrival="270.00" arrivalLane="end_0" arrivalPos="200.00" arrivalSpeed="7.82" duration="152.00" routeLength="497.80" waitSteps="73" timeLoss="122.01" rerouteNo="0" devices="tripinfo_mixed.73" vType="moped" vaporized=""/>
    <tripinfo id="mixed.67" depart="107.00" departLane="beg_1" departPos="2.20" departSpeed="0.00" departDelay="40.00" arrival="271.00" arrivalLane="end_0" arrivalPos="200.00" arrivalSpeed="7.75" duration="164.00" routeLength="497.80" waitSteps="82" timeLoss="133.63" rerouteNo="0" devices="tripinfo_mixed.67" vType="moped" vaporized=""/>
    <tripinfo id="mixed.86" depart="143.00" departLane="beg_1" departPos="2.20" departSpeed="0.00" departDelay="57.00" arrival="271.00" arrivalLane="end_1" arrivalPos="200.00" arrivalSpeed="15.32" duration="128.00" routeLength="497.80" waitSteps="54" timeLoss="97.51" rerouteNo="0" devices="tripinfo_mixed.86" vType="moped" vaporized=""/>
    <tripinfo id="mixed.96" depart="162.00" departLane="beg_0" departPos="5.10" departSpeed="0.00" departDelay="66.00" arrival="271.00" arrivalLane="end_1" arrivalPos="200.00" arrivalSpeed="16.60" duration="109.00" routeLength="494.90" waitSteps="44" timeLoss="79.35" rerouteNo="0" devices="tripinfo_mixed.96" vType="car" vaporized=""/>
    <tripinfo id="mixed.65" depart="104.00" departLane="beg_1" departPos="2.20" departSpeed="0.00" departDelay="39.00" arrival="272.00" arrivalLane="end_0" arrivalPos="200.00" arrivalSpeed="8.62" duration="168.00" routeLength="497.80" waitSteps="84" timeLoss="121.16" rerouteNo="0" devices="tripinfo_mixed.65" vType="moped" vaporized=""/>
    <tripinfo id="mixed.89" depart="148.00" departLane="beg_1" departPos="2.20" departSpeed="0.00" departDelay="59.00" arrival="273.00" arrivalLane="end_1" arrivalPos="200.00" arrivalSpeed="12.48" duration="125.00" routeLength="497.80" waitSteps="60" timeLoss="84.72" rerouteNo="0" devices="tripinfo_mixed.89" vType="moped" vaporized=""/>
    <tripinfo id="mixed.98" depart="165.00" departLane="beg_1" departPos="5.10" departSpeed="0.00" departDelay="67.00" arrival="273.00" arrivalLane="end_1" arrivalPos="200.00" arrivalSpeed="14.43" duration="108.00" routeLength="494.90" waitSteps="40" timeLoss="73.83" rerouteNo="0" devices="tripinfo_mixed.98" vType="car" vaporized=""/>
    <tripinfo id="mixed.49" depart="77.00" departLane="beg_1" departPos="2.20" departSpeed="0.00" departDelay="28.00" arrival="274.00" arrivalLane="end_0" arrivalPos="200.00" arrivalSpeed="8.63" duration="197.00" routeLength="497.80" waitSteps="111" timeLoss="153.91" rerouteNo="0" devices="tripinfo_mixed.49" vType="moped" vaporized=""/>
    <tripinfo id="mixed.80" depart="133.00" departLane="beg_0" departPos="2.20" departSpeed="0.00" departDelay="53.00" arrival="274.00" arrivalLane="end_1" arrivalPos="200.00" arrivalSpeed="13.35" duration="141.00" routeLength="497.80" waitSteps="67" timeLoss="110.79" rerouteNo="0" devices="tripinfo_mixed.80" vType="moped" vaporized=""/>
    <tripinfo id="mixed.76" depart="125.00" departLane="beg_0" departPos="2.20" departSpeed="0.00" departDelay="49.00" arrival="274.00" arrivalLane="end_1" arrivalPos="200.00" arrivalSpeed="15.08" duration="149.00" routeLength="497.80" waitSteps="69" timeLoss="118.93" rerouteNo="0" devices="tripinfo_mixed.76" vType="moped" vaporized=""/>
    <tripinfo id="mixed.41" depart="65.00" departLane="beg_0" departPos="2.20" departSpeed="0.00" departDelay="24.00" arrival="276.00" arrivalLane="end_0" arrivalPos="200.00" arrivalSpeed="9.43" duration="211.00" routeLength="497.80" waitSteps="112" timeLoss="180.54" rerouteNo="0" devices="tripinfo_mixed.41" vType="moped" vaporized=""/>
    <tripinfo id="mixed.94" depart="155.00" departLane="beg_0" departPos="2.20" departSpeed="0.00" departDelay="61.00" arrival="276.00" arrivalLane="end_1" arrivalPos="200.00" arrivalSpeed="15.40" duration="121.00" routeLength="497.80" waitSteps="50" timeLoss="88.43" rerouteNo="0" devices="tripinfo_mixed.94" vType="moped" vaporized=""/>
    <tripinfo id="mixed.29" depart="45.00" departLane="beg_1" departPos="2.20" departSpeed="0.00" departDelay="16.00" arrival="277.00" arrivalLane="end_0" arrivalPos="200.00" arrivalSpeed="4.57" duration="232.00" routeLength="497.80" waitSteps="114" timeLoss="125.88" rerouteNo="0" devices="tripinfo_mixed.29" vType="moped" vaporized=""/>
    <tripinfo id="mixed.42" depart="67.00" departLane="beg_1" departPos="2.20" departSpeed="0.00" departDelay="25.00" arrival="278.00" arrivalLane="end_0" arrivalPos="200.00" arrivalSpeed="6.43" duration="211.00" routeLength="497.80" waitSteps="112" timeLoss="150.64" rerouteNo="0" devices="tripinfo_mixed.42" vType="moped" vaporized=""/>
    <tripinfo id="mixed.90" depart="150.00" departLane="beg_1" departPos="2.20" departSpeed="0.00" departDelay="60.00" arrival="278.00" arrivalLane="end_1" arrivalPos="200.00" arrivalSpeed="10.24" duration="128.00" routeLength="497.80" waitSteps="53" timeLoss="80.60" rerouteNo="0" devices="tripinfo_mixed.90" vType="moped" vaporized=""/>
    <tripinfo id="mixed.92" depart="154.00" departLane="beg_0" departPos="5.10" departSpeed="0.00" departDelay="62.00" arrival="279.00" arrivalLane="end_1" arrivalPos="200.00" arrivalSpeed="14.31" duration="125.00" routeLength="494.90" waitSteps="47" timeLoss="90.21" rerouteNo="0" devices="tripinfo_mixed.92" vType="car" vaporized=""/>
    <tripinfo id="mixed.48" depart="75.00" departLane="beg_0" departPos="2.20" departSpeed="0.00" departDelay="27.00" arrival="280.00" arrivalLane="end_0" arrivalPos="200.00" arrivalSpeed="7.91" duration="205.00" routeLength="497.80" waitSteps="110" timeLoss="166.52" rerouteNo="0" devices="tripinfo_mixed.48" vType="moped" vaporized=""/>
    <tripinfo id="mixed.78" depart="130.00" departLane="beg_0" departPos="5.10" departSpeed="0.00" departDelay="52.00" arrival="280.00" arrivalLane="end_0" arrivalPos="200.00" arrivalSpeed="8.09" duration="150.00" routeLength="494.90" waitSteps="68" timeLoss="116.51" rerouteNo="0" devices="tripinfo_mixed.78" vType="car" vaporized=""/>
    <tripinfo id="mixed.91" depart="150.00" departLane="beg_0" departPos="2.20" departSpeed="0.00" departDelay="59.00" arrival="280.00" arrivalLane="end_1" arrivalPos="200.00" arrivalSpeed="11.12" duration="130.00" routeLength="497.80" waitSteps="50" timeLoss="97.65" rerouteNo="0" devices="tripinfo_mixed.91" vType="moped" vaporized=""/>
    <tripinfo id="mixed.59" depart="93.00" departLane="beg_1" departPos="2.20" departSpeed="0.00" departDelay="34.00" arrival="281.00" arrivalLane="end_0" arrivalPos="200.00" arrivalSpeed="7.91" duration="188.00" routeLength="497.80" waitSteps="91" timeLoss="127.00" rerouteNo="0" devices="tripinfo_mixed.59" vType="moped" vaporized=""/>