<?xml version="1.0" encoding="UTF-8"?>

<!-- generated on Tue Apr  5 13:44:34 2016 by SUMO Version dev-SVN-r20343
<?xml version="1.0" encoding="UTF-8"?>

<configuration xmlns:xsi="http://www.w3.org/2001/XMLSchema-instance" xsi:noNamespaceSchemaLocation="http://sumo.dlr.de/xsd/sumoConfiguration.xsd">

    <input>
        <net-file value="net.net.xml"/>
        <additional-files value="input_routes.rou.xml,input_additional.add.xml,input_additional2.add.xml"/>
    </input>

    <time>
        <begin value="0"/>
        <end value="1000"/>
    </time>

    <processing>
        <time-to-teleport value="-1"/>
    </processing>

    <report>
        <xml-validation value="never"/>
        <duration-log.disable value="true"/>
        <no-step-log value="true"/>
    </report>

</configuration>
-->

<meandata xmlns:xsi="http://www.w3.org/2001/XMLSchema-instance" xsi:noNamespaceSchemaLocation="http://sumo.dlr.de/xsd/meandata_file.xsd">
    <interval begin="600.00" end="615.00" id="dump_15">
        <edge id="2/1to1/1">
            <lane id="2/1to1/1_0" sampledSeconds="15.00" CO_abs="95.573417" CO2_abs="9025.391667" HC_abs="5.241300" PMx_abs="0.318922" NOx_abs="12.592650" fuel_abs="3.598283" electricity_abs="0"
            CO_normed="57.344050" CO2_normed="5415.235000" HC_normed="3.144780" PMx_normed="0.191353" NOx_normed="7.555590" fuel_normed="2.158970" electricity_normed="0"
            traveltime="100000.00" CO_perVeh="637156.111111" CO2_perVeh="60169277.777778" HC_perVeh="34942.000000" PMx_perVeh="2126.148611" NOx_perVeh="83951.000000" fuel_perVeh="23988.551336" electricity_perVeh="0"/>
        </edge>
        <edge id="3/1to2/1">
            <lane id="3/1to2/1_0" sampledSeconds="780.00" CO_abs="4969.817667" CO2_abs="469320.366667" HC_abs="272.547600" PMx_abs="16.583959" NOx_abs="654.817800" fuel_abs="187.110700" electricity_abs="0"
            CO_normed="2981.890600" CO2_normed="281592.220000" HC_normed="163.528560" PMx_normed="9.950376" NOx_normed="392.890680" fuel_normed="112.266420" electricity_normed="0"
            traveltime="100000.00" CO_perVeh="637156.111111" CO2_perVeh="60169277.777779" HC_perVeh="34942.000000" PMx_perVeh="2126.148611" NOx_perVeh="83951.000000" fuel_perVeh="23988.551336" electricity_perVeh="0"/>
        </edge>
        <edge id="4/1to3/1">
            <lane id="4/1to3/1_0" sampledSeconds="375.00" CO_abs="2389.335417" CO2_abs="225634.791667" HC_abs="131.032500" PMx_abs="7.973057" NOx_abs="314.816250" fuel_abs="89.957068" electricity_abs="0"
            CO_normed="1433.601250" CO2_normed="135380.875000" HC_normed="78.619500" PMx_normed="4.783834" NOx_normed="188.889750" fuel_normed="53.974241" electricity_normed="0"
            traveltime="100000.00" CO_perVeh="637156.111111" CO2_perVeh="60169277.777778" HC_perVeh="34942.000000" PMx_perVeh="2126.148611" NOx_perVeh="83951.000000" fuel_perVeh="23988.551336" electricity_perVeh="0"/>
        </edge>
    </interval>
    <interval begin="615.00" end="630.00" id="dump_15">
        <edge id="2/1to1/1">
            <lane id="2/1to1/1_0" sampledSeconds="15.00" CO_abs="95.573417" CO2_abs="9025.391667" HC_abs="5.241300" PMx_abs="0.318922" NOx_abs="12.592650" fuel_abs="3.598283" electricity_abs="0"
            CO_normed="57.344050" CO2_normed="5415.235000" HC_normed="3.144780" PMx_normed="0.191353" NOx_normed="7.555590" fuel_normed="2.158970" electricity_normed="0"
            traveltime="100000.00" CO_perVeh="637156.111111" CO2_perVeh="60169277.777778" HC_perVeh="34942.000000" PMx_perVeh="2126.148611" NOx_perVeh="83951.000000" fuel_perVeh="23988.551336" electricity_perVeh="0"/>
        </edge>
        <edge id="3/1to2/1">
            <lane id="3/1to2/1_0" sampledSeconds="780.00" CO_abs="4969.817667" CO2_abs="469320.366667" HC_abs="272.547600" PMx_abs="16.583959" NOx_abs="654.817800" fuel_abs="187.110700" electricity_abs="0"
            CO_normed="2981.890600" CO2_normed="281592.220000" HC_normed="163.528560" PMx_normed="9.950376" NOx_normed="392.890680" fuel_normed="112.266420" electricity_normed="0"
            traveltime="100000.00" CO_perVeh="637156.111111" CO2_perVeh="60169277.777779" HC_perVeh="34942.000000" PMx_perVeh="2126.148611" NOx_perVeh="83951.000000" fuel_perVeh="23988.551336" electricity_perVeh="0"/>
        </edge>
        <edge id="4/1to3/1">
            <lane id="4/1to3/1_0" sampledSeconds="375.00" CO_abs="2389.335417" CO2_abs="225634.791667" HC_abs="131.032500" PMx_abs="7.973057" NOx_abs="314.816250" fuel_abs="89.957068" electricity_abs="0"
            CO_normed="1433.601250" CO2_normed="135380.875000" HC_normed="78.619500" PMx_normed="4.783834" NOx_normed="188.889750" fuel_normed="53.974241" electricity_normed="0"
            traveltime="100000.00" CO_perVeh="637156.111111" CO2_perVeh="60169277.777778" HC_perVeh="34942.000000" PMx_perVeh="2126.148611" NOx_perVeh="83951.000000" fuel_perVeh="23988.551336" electricity_perVeh="0"/>
        </edge>
    </interval>
    <interval begin="630.00" end="645.00" id="dump_15">
        <edge id="2/1to1/1">
            <lane id="2/1to1/1_0" sampledSeconds="15.00" CO_abs="95.573417" CO2_abs="9025.391667" HC_abs="5.241300" PMx_abs="0.318922" NOx_abs="12.592650" fuel_abs="3.598283" electricity_abs="0"
            CO_normed="57.344050" CO2_normed="5415.235000" HC_normed="3.144780" PMx_normed="0.191353" NOx_normed="7.555590" fuel_normed="2.158970" electricity_normed="0"
            traveltime="100000.00" CO_perVeh="637156.111111" CO2_perVeh="60169277.777778" HC_perVeh="34942.000000" PMx_perVeh="2126.148611" NOx_perVeh="83951.000000" fuel_perVeh="23988.551336" electricity_perVeh="0"/>
        </edge>
        <edge id="3/1to2/1">
            <lane id="3/1to2/1_0" sampledSeconds="780.00" CO_abs="4969.817667" CO2_abs="469320.366667" HC_abs="272.547600" PMx_abs="16.583959" NOx_abs="654.817800" fuel_abs="187.110700" electricity_abs="0"
            CO_normed="2981.890600" CO2_normed="281592.220000" HC_normed="163.528560" PMx_normed="9.950376" NOx_normed="392.890680" fuel_normed="112.266420" electricity_normed="0"
            traveltime="100000.00" CO_perVeh="637156.111111" CO2_perVeh="60169277.777779" HC_perVeh="34942.000000" PMx_perVeh="2126.148611" NOx_perVeh="83951.000000" fuel_perVeh="23988.551336" electricity_perVeh="0"/>
        </edge>
        <edge id="4/1to3/1">
            <lane id="4/1to3/1_0" sampledSeconds="375.00" CO_abs="2370.215594" CO2_abs="223830.278254" HC_abs="129.984217" PMx_abs="7.909312" NOx_abs="312.298636" fuel_abs="89.237636" electricity_abs="0"
            CO_normed="1422.129357" CO2_normed="134298.166952" HC_normed="77.990530" PMx_normed="4.745587" NOx_normed="187.379181" fuel_normed="53.542582" electricity_normed="0"
            traveltime="100000.00" CO_perVeh="632057.491785" CO2_perVeh="59688074.201018" HC_perVeh="34662.457903" PMx_perVeh="2109.149764" NOx_perVeh="83279.636181" fuel_perVeh="23796.702985" electricity_perVeh="0"/>
        </edge>
    </interval>
    <interval begin="645.00" end="660.00" id="dump_15">
        <edge id="2/1to1/1">
            <lane id="2/1to1/1_0" sampledSeconds="15.00" CO_abs="95.573417" CO2_abs="9025.391667" HC_abs="5.241300" PMx_abs="0.318922" NOx_abs="12.592650" fuel_abs="3.598283" electricity_abs="0"
            CO_normed="57.344050" CO2_normed="5415.235000" HC_normed="3.144780" PMx_normed="0.191353" NOx_normed="7.555590" fuel_normed="2.158970" electricity_normed="0"
            traveltime="100000.00" CO_perVeh="637156.111111" CO2_perVeh="60169277.777778" HC_perVeh="34942.000000" PMx_perVeh="2126.148611" NOx_perVeh="83951.000000" fuel_perVeh="23988.551336" electricity_perVeh="0"/>
        </edge>
        <edge id="3/1to2/1">
            <lane id="3/1to2/1_0" sampledSeconds="780.00" CO_abs="4969.817667" CO2_abs="469320.366667" HC_abs="272.547600" PMx_abs="16.583959" NOx_abs="654.817800" fuel_abs="187.110700" electricity_abs="0"
            CO_normed="2981.890600" CO2_normed="281592.220000" HC_normed="163.528560" PMx_normed="9.950376" NOx_normed="392.890680" fuel_normed="112.266420" electricity_normed="0"
            traveltime="100000.00" CO_perVeh="637156.111111" CO2_perVeh="60169277.777779" HC_perVeh="34942.000000" PMx_perVeh="2126.148611" NOx_perVeh="83951.000000" fuel_perVeh="23988.551336" electricity_perVeh="0"/>
        </edge>
        <edge id="4/1to3/1">
            <lane id="4/1to3/1_0" sampledSeconds="375.00" CO_abs="2389.335417" CO2_abs="225634.791667" HC_abs="131.032500" PMx_abs="7.973057" NOx_abs="314.816250" fuel_abs="89.957068" electricity_abs="0"
            CO_normed="1433.601250" CO2_normed="135380.875000" HC_normed="78.619500" PMx_normed="4.783834" NOx_normed="188.889750" fuel_normed="53.974241" electricity_normed="0"
            traveltime="100000.00" CO_perVeh="637156.111111" CO2_perVeh="60169277.777778" HC_perVeh="34942.000000" PMx_perVeh="2126.148611" NOx_perVeh="83951.000000" fuel_perVeh="23988.551336" electricity_perVeh="0"/>
        </edge>
    </interval>
</meandata>
