<?xml version="1.0" encoding="UTF-8"?>

<!-- generated on Thu May 12 15:24:55 2016 by SUMO Version dev-SVN-r20713
<?xml version="1.0" encoding="UTF-8"?>

<configuration xmlns:xsi="http://www.w3.org/2001/XMLSchema-instance" xsi:noNamespaceSchemaLocation="http://sumo.dlr.de/xsd/sumoConfiguration.xsd">

    <input>
        <net-file value="net.net.xml"/>
        <route-files value="input_routes.rou.xml"/>
    </input>

    <output>
        <fcd-output value="fcd.xml"/>
        <tripinfo-output value="tripinfos.xml"/>
    </output>

    <report>
        <xml-validation value="never"/>
        <no-step-log value="true"/>
    </report>

</configuration>
-->

<fcd-export xmlns:xsi="http://www.w3.org/2001/XMLSchema-instance" xsi:noNamespaceSchemaLocation="http://sumo.dlr.de/xsd/fcd_file.xsd">
    <timestep time="0.00">
        <vehicle id="oncoming1" x="100.00" y="1.65" angle="270.00" type="DEFAULT_VEHTYPE" speed="0.00" pos="100.00" lane="-VODUGES_beg_0" slope="0.00"/>
        <vehicle id="oncoming2" x="200.00" y="1.65" angle="270.00" type="DEFAULT_VEHTYPE" speed="0.00" pos="0.00" lane="-VODUGES_beg_0" slope="0.00"/>
        <vehicle id="stopped" x="40.00" y="-1.65" angle="90.00" type="DEFAULT_VEHTYPE" speed="0.00" pos="40.00" lane="VODUGES_beg_0" slope="0.00"/>
    </timestep>
    <timestep time="1.00">
        <vehicle id="oncoming1" x="99.16" y="1.65" angle="270.00" type="DEFAULT_VEHTYPE" speed="1.67" pos="100.84" lane="-VODUGES_beg_0" slope="0.00"/>
        <vehicle id="oncoming2" x="198.73" y="1.65" angle="270.00" type="DEFAULT_VEHTYPE" speed="2.54" pos="1.27" lane="-VODUGES_beg_0" slope="0.00"/>
        <vehicle id="overtaking" x="0.00" y="-1.65" angle="90.00" type="DEFAULT_VEHTYPE" speed="0.00" pos="0.00" lane="VODUGES_beg_0" slope="0.00"/>
        <vehicle id="stopped" x="40.72" y="-1.65" angle="90.00" type="DEFAULT_VEHTYPE" speed="1.44" pos="40.72" lane="VODUGES_beg_0" slope="0.00"/>
    </timestep>
    <timestep time="2.00">
        <vehicle id="oncoming1" x="96.22" y="1.65" angle="270.00" type="DEFAULT_VEHTYPE" speed="4.22" pos="103.78" lane="-VODUGES_beg_0" slope="0.00"/>
        <vehicle id="oncoming2" x="195.37" y="1.65" angle="270.00" type="DEFAULT_VEHTYPE" speed="4.17" pos="4.63" lane="-VODUGES_beg_0" slope="0.00"/>
        <vehicle id="overtaking" x="0.92" y="-1.65" angle="90.00" type="DEFAULT_VEHTYPE" speed="1.83" pos="0.92" lane="VODUGES_beg_0" slope="0.00"/>
        <vehicle id="stopped" x="43.14" y="-1.65" angle="90.00" type="DEFAULT_VEHTYPE" speed="3.40" pos="43.14" lane="VODUGES_beg_0" slope="0.00"/>
    </timestep>
    <timestep time="3.00">
        <vehicle id="oncoming1" x="91.18" y="1.65" angle="270.00" type="DEFAULT_VEHTYPE" speed="5.85" pos="108.82" lane="-VODUGES_beg_0" slope="0.00"/>
        <vehicle id="oncoming2" x="189.90" y="1.65" angle="270.00" type="DEFAULT_VEHTYPE" speed="6.77" pos="10.10" lane="-VODUGES_beg_0" slope="0.00"/>
        <vehicle id="overtaking" x="3.70" y="-1.65" angle="90.00" type="DEFAULT_VEHTYPE" speed="3.72" pos="3.70" lane="VODUGES_beg_0" slope="0.00"/>
        <vehicle id="stopped" x="47.15" y="-1.65" angle="90.00" type="DEFAULT_VEHTYPE" speed="4.60" pos="47.15" lane="VODUGES_beg_0" slope="0.00"/>
    </timestep>
    <timestep time="4.00">
        <vehicle id="oncoming1" x="84.33" y="1.65" angle="270.00" type="DEFAULT_VEHTYPE" speed="7.86" pos="115.67" lane="-VODUGES_beg_0" slope="0.00"/>
        <vehicle id="oncoming2" x="182.20" y="1.65" angle="270.00" type="DEFAULT_VEHTYPE" speed="8.63" pos="17.80" lane="-VODUGES_beg_0" slope="0.00"/>
        <vehicle id="overtaking" x="8.42" y="-1.65" angle="90.00" type="DEFAULT_VEHTYPE" speed="5.72" pos="8.42" lane="VODUGES_beg_0" slope="0.00"/>
        <vehicle id="stopped" x="49.75" y="-1.65" angle="90.00" type="DEFAULT_VEHTYPE" speed="0.61" pos="49.75" lane="VODUGES_beg_0" slope="0.00"/>
    </timestep>
    <timestep time="5.00">
        <vehicle id="oncoming1" x="75.21" y="1.65" angle="270.00" type="DEFAULT_VEHTYPE" speed="10.38" pos="124.79" lane="-VODUGES_beg_0" slope="0.00"/>
        <vehicle id="oncoming2" x="172.84" y="1.65" angle="270.00" type="DEFAULT_VEHTYPE" speed="10.09" pos="27.16" lane="-VODUGES_beg_0" slope="0.00"/>
        <vehicle id="overtaking" x="15.26" y="-1.65" angle="90.00" type="DEFAULT_VEHTYPE" speed="7.97" pos="15.26" lane="VODUGES_beg_0" slope="0.00"/>
        <vehicle id="stopped" x="49.79" y="-1.65" angle="90.00" type="DEFAULT_VEHTYPE" speed="0.00" pos="49.79" lane="VODUGES_beg_0" slope="0.00"/>
    </timestep>
    <timestep time="6.00">
        <vehicle id="oncoming1" x="63.56" y="1.65" angle="270.00" type="DEFAULT_VEHTYPE" speed="12.92" pos="136.44" lane="-VODUGES_beg_0" slope="0.00"/>
        <vehicle id="oncoming2" x="161.78" y="1.65" angle="270.00" type="DEFAULT_VEHTYPE" speed="12.03" pos="38.22" lane="-VODUGES_beg_0" slope="0.00"/>
        <vehicle id="overtaking" x="24.09" y="-1.65" angle="90.00" type="DEFAULT_VEHTYPE" speed="9.69" pos="24.09" lane="VODUGES_beg_0" slope="0.00"/>
        <vehicle id="stopped" x="49.95" y="-1.65" angle="90.00" type="DEFAULT_VEHTYPE" speed="0.32" pos="49.95" lane="VODUGES_beg_0" slope="0.00"/>
    </timestep>
    <timestep time="7.00">
        <vehicle id="oncoming1" x="50.56" y="1.65" angle="270.00" type="DEFAULT_VEHTYPE" speed="13.07" pos="149.44" lane="-VODUGES_beg_0" slope="0.00"/>
        <vehicle id="oncoming2" x="149.43" y="1.65" angle="270.00" type="DEFAULT_VEHTYPE" speed="12.67" pos="50.57" lane="-VODUGES_beg_0" slope="0.00"/>
        <vehicle id="overtaking" x="33.24" y="-1.65" angle="90.00" type="DEFAULT_VEHTYPE" speed="8.61" pos="33.24" lane="VODUGES_beg_0" slope="0.00"/>
        <vehicle id="stopped" x="49.96" y="-1.65" angle="90.00" type="DEFAULT_VEHTYPE" speed="0.00" pos="49.96" lane="VODUGES_beg_0" slope="0.00"/>
    </timestep>
    <timestep time="8.00">
        <vehicle id="oncoming1" x="37.34" y="1.65" angle="270.00" type="DEFAULT_VEHTYPE" speed="13.37" pos="162.66" lane="-VODUGES_beg_0" slope="0.00"/>
        <vehicle id="oncoming2" x="136.51" y="1.65" angle="270.00" type="DEFAULT_VEHTYPE" speed="13.18" pos="63.49" lane="-VODUGES_beg_0" slope="0.00"/>
        <vehicle id="overtaking" x="39.60" y="-1.65" angle="90.00" type="DEFAULT_VEHTYPE" speed="4.11" pos="39.60" lane="VODUGES_beg_0" slope="0.00"/>
        <vehicle id="stopped" x="49.96" y="-1.65" angle="90.00" type="DEFAULT_VEHTYPE" speed="0.00" pos="49.96" lane="VODUGES_beg_0" slope="0.00"/>
    </timestep>
    <timestep time="9.00">
        <vehicle id="oncoming1" x="23.91" y="1.65" angle="270.00" type="DEFAULT_VEHTYPE" speed="13.50" pos="176.09" lane="-VODUGES_beg_0" slope="0.00"/>
        <vehicle id="oncoming2" x="123.47" y="1.65" angle="270.00" type="DEFAULT_VEHTYPE" speed="12.90" pos="76.53" lane="-VODUGES_beg_0" slope="0.00"/>
        <vehicle id="overtaking" x="42.28" y="1.65" angle="90.00" type="DEFAULT_VEHTYPE" speed="1.24" pos="157.72" lane="-VODUGES_beg_0" slope="0.00"/>
        <vehicle id="stopped" x="49.96" y="-1.65" angle="90.00" type="DEFAULT_VEHTYPE" speed="0.00" pos="49.96" lane="VODUGES_beg_0" slope="0.00"/>
    </timestep>
    <timestep time="10.00">
        <vehicle id="oncoming1" x="10.83" y="1.65" angle="270.00" type="DEFAULT_VEHTYPE" speed="12.65" pos="189.17" lane="-VODUGES_beg_0" slope="0.00"/>
        <vehicle id="oncoming2" x="110.52" y="1.65" angle="270.00" type="DEFAULT_VEHTYPE" speed="13.00" pos="89.48" lane="-VODUGES_beg_0" slope="0.00"/>
        <vehicle id="overtaking" x="44.79" y="1.65" angle="90.00" type="DEFAULT_VEHTYPE" speed="3.80" pos="155.21" lane="-VODUGES_beg_0" slope="0.00"/>
        <vehicle id="stopped" x="49.96" y="-1.65" angle="90.00" type="DEFAULT_VEHTYPE" speed="0.00" pos="49.96" lane="VODUGES_beg_0" slope="0.00"/>
    </timestep>
    <timestep time="11.00">
        <vehicle id="oncoming2" x="97.34" y="1.65" angle="270.00" type="DEFAULT_VEHTYPE" speed="13.36" pos="102.66" lane="-VODUGES_beg_0" slope="0.00"/>
        <vehicle id="overtaking" x="49.81" y="1.65" angle="90.00" type="DEFAULT_VEHTYPE" speed="6.23" pos="150.19" lane="-VODUGES_beg_0" slope="0.00"/>
        <vehicle id="stopped" x="49.96" y="-1.65" angle="90.00" type="DEFAULT_VEHTYPE" speed="0.00" pos="49.96" lane="VODUGES_beg_0" slope="0.00"/>
    </timestep>
    <timestep time="12.00">
        <vehicle id="oncoming2" x="83.87" y="1.65" angle="270.00" type="DEFAULT_VEHTYPE" speed="13.60" pos="116.13" lane="-VODUGES_beg_0" slope="0.00"/>
        <vehicle id="overtaking" x="57.17" y="1.65" angle="90.00" type="DEFAULT_VEHTYPE" speed="8.49" pos="142.83" lane="-VODUGES_beg_0" slope="0.00"/>
        <vehicle id="stopped" x="49.96" y="-1.65" angle="90.00" type="DEFAULT_VEHTYPE" speed="0.00" pos="49.96" lane="VODUGES_beg_0" slope="0.00"/>
    </timestep>
    <timestep time="13.00">
        <vehicle id="oncoming2" x="70.28" y="1.65" angle="270.00" type="DEFAULT_VEHTYPE" speed="13.58" pos="129.72" lane="-VODUGES_beg_0" slope="0.00"/>
        <vehicle id="overtaking" x="66.59" y="-1.65" angle="90.00" type="DEFAULT_VEHTYPE" speed="10.35" pos="66.59" lane="VODUGES_beg_0" slope="0.00"/>
        <vehicle id="stopped" x="49.96" y="-1.65" angle="90.00" type="DEFAULT_VEHTYPE" speed="0.00" pos="49.96" lane="VODUGES_beg_0" slope="0.00"/>
    </timestep>
    <timestep time="14.00">
        <vehicle id="oncoming2" x="56.98" y="1.65" angle="270.00" type="DEFAULT_VEHTYPE" speed="13.02" pos="143.02" lane="-VODUGES_beg_0" slope="0.00"/>
        <vehicle id="overtaking" x="77.71" y="-1.65" angle="90.00" type="DEFAULT_VEHTYPE" speed="11.89" pos="77.71" lane="VODUGES_beg_0" slope="0.00"/>
        <vehicle id="stopped" x="49.96" y="-1.65" angle="90.00" type="DEFAULT_VEHTYPE" speed="0.00" pos="49.96" lane="VODUGES_beg_0" slope="0.00"/>
    </timestep>
    <timestep time="15.00">
        <vehicle id="oncoming2" x="43.97" y="1.65" angle="270.00" type="DEFAULT_VEHTYPE" speed="12.99" pos="156.03" lane="-VODUGES_beg_0" slope="0.00"/>
        <vehicle id="overtaking" x="90.14" y="-1.65" angle="90.00" type="DEFAULT_VEHTYPE" speed="12.96" pos="90.14" lane="VODUGES_beg_0" slope="0.00"/>
        <vehicle id="stopped" x="49.96" y="-1.65" angle="90.00" type="DEFAULT_VEHTYPE" speed="0.00" pos="49.96" lane="VODUGES_beg_0" slope="0.00"/>
    </timestep>
    <timestep time="16.00">
        <vehicle id="oncoming2" x="30.73" y="1.65" angle="270.00" type="DEFAULT_VEHTYPE" speed="13.49" pos="169.27" lane="-VODUGES_beg_0" slope="0.00"/>
        <vehicle id="overtaking" x="102.96" y="-1.65" angle="90.00" type="DEFAULT_VEHTYPE" speed="12.67" pos="102.96" lane="VODUGES_beg_0" slope="0.00"/>
        <vehicle id="stopped" x="49.96" y="-1.65" angle="90.00" type="DEFAULT_VEHTYPE" speed="0.00" pos="49.96" lane="VODUGES_beg_0" slope="0.00"/>
    </timestep>
    <timestep time="17.00">
        <vehicle id="oncoming2" x="17.15" y="1.65" angle="270.00" type="DEFAULT_VEHTYPE" speed="13.67" pos="182.85" lane="-VODUGES_beg_0" slope="0.00"/>
        <vehicle id="overtaking" x="115.92" y="-1.65" angle="90.00" type="DEFAULT_VEHTYPE" speed="13.25" pos="115.92" lane="VODUGES_beg_0" slope="0.00"/>
        <vehicle id="stopped" x="49.96" y="-1.65" angle="90.00" type="DEFAULT_VEHTYPE" speed="0.00" pos="49.96" lane="VODUGES_beg_0" slope="0.00"/>
    </timestep>
    <timestep time="18.00">
        <vehicle id="oncoming2" x="3.79" y="1.65" angle="270.00" type="DEFAULT_VEHTYPE" speed="13.06" pos="196.21" lane="-VODUGES_beg_0" slope="0.00"/>
        <vehicle id="overtaking" x="128.87" y="-1.65" angle="90.00" type="DEFAULT_VEHTYPE" speed="12.65" pos="128.87" lane="VODUGES_beg_0" slope="0.00"/>
        <vehicle id="stopped" x="49.96" y="-1.65" angle="90.00" type="DEFAULT_VEHTYPE" speed="0.00" pos="49.96" lane="VODUGES_beg_0" slope="0.00"/>
    </timestep>
    <timestep time="19.00">
        <vehicle id="overtaking" x="142.04" y="-1.65" angle="90.00" type="DEFAULT_VEHTYPE" speed="13.69" pos="142.04" lane="VODUGES_beg_0" slope="0.00"/>
        <vehicle id="stopped" x="49.96" y="-1.65" angle="90.00" type="DEFAULT_VEHTYPE" speed="0.00" pos="49.96" lane="VODUGES_beg_0" slope="0.00"/>
    </timestep>
    <timestep time="20.00">
        <vehicle id="overtaking" x="155.47" y="-1.65" angle="90.00" type="DEFAULT_VEHTYPE" speed="13.18" pos="155.47" lane="VODUGES_beg_0" slope="0.00"/>
        <vehicle id="stopped" x="49.96" y="-1.65" angle="90.00" type="DEFAULT_VEHTYPE" speed="0.00" pos="49.96" lane="VODUGES_beg_0" slope="0.00"/>
    </timestep>
    <timestep time="21.00">
        <vehicle id="overtaking" x="168.97" y="-1.65" angle="90.00" type="DEFAULT_VEHTYPE" speed="13.80" pos="168.97" lane="VODUGES_beg_0" slope="0.00"/>
        <vehicle id="stopped" x="49.96" y="-1.65" angle="90.00" type="DEFAULT_VEHTYPE" speed="0.00" pos="49.96" lane="VODUGES_beg_0" slope="0.00"/>
    </timestep>
    <timestep time="22.00">
        <vehicle id="overtaking" x="182.17" y="-1.65" angle="90.00" type="DEFAULT_VEHTYPE" speed="12.60" pos="182.17" lane="VODUGES_beg_0" slope="0.00"/>
        <vehicle id="stopped" x="49.96" y="-1.65" angle="90.00" type="DEFAULT_VEHTYPE" speed="0.00" pos="49.96" lane="VODUGES_beg_0" slope="0.00"/>
    </timestep>
    <timestep time="23.00">
        <vehicle id="overtaking" x="195.19" y="-1.65" angle="90.00" type="DEFAULT_VEHTYPE" speed="13.45" pos="195.19" lane="VODUGES_beg_0" slope="0.00"/>
        <vehicle id="stopped" x="49.96" y="-1.65" angle="90.00" type="DEFAULT_VEHTYPE" speed="0.00" pos="49.96" lane="VODUGES_beg_0" slope="0.00"/>
    </timestep>
    <timestep time="24.00">
        <vehicle id="stopped" x="49.96" y="-1.65" angle="90.00" type="DEFAULT_VEHTYPE" speed="0.00" pos="49.96" lane="VODUGES_beg_0" slope="0.00"/>
    </timestep>
    <timestep time="25.00">
        <vehicle id="stopped" x="49.96" y="-1.65" angle="90.00" type="DEFAULT_VEHTYPE" speed="0.00" pos="49.96" lane="VODUGES_beg_0" slope="0.00"/>
    </timestep>
    <timestep time="26.00">
        <vehicle id="stopped" x="49.96" y="-1.65" angle="90.00" type="DEFAULT_VEHTYPE" speed="0.00" pos="49.96" lane="VODUGES_beg_0" slope="0.00"/>
    </timestep>
    <timestep time="27.00">
        <vehicle id="stopped" x="49.96" y="-1.65" angle="90.00" type="DEFAULT_VEHTYPE" speed="0.00" pos="49.96" lane="VODUGES_beg_0" slope="0.00"/>
    </timestep>
    <timestep time="28.00">
        <vehicle id="stopped" x="49.96" y="-1.65" angle="90.00" type="DEFAULT_VEHTYPE" speed="0.00" pos="49.96" lane="VODUGES_beg_0" slope="0.00"/>
    </timestep>
    <timestep time="29.00">
        <vehicle id="stopped" x="49.96" y="-1.65" angle="90.00" type="DEFAULT_VEHTYPE" speed="0.00" pos="49.96" lane="VODUGES_beg_0" slope="0.00"/>
    </timestep>
    <timestep time="30.00">
        <vehicle id="stopped" x="49.96" y="-1.65" angle="90.00" type="DEFAULT_VEHTYPE" speed="0.00" pos="49.96" lane="VODUGES_beg_0" slope="0.00"/>
    </timestep>
    <timestep time="31.00">
        <vehicle id="stopped" x="49.96" y="-1.65" angle="90.00" type="DEFAULT_VEHTYPE" speed="0.00" pos="49.96" lane="VODUGES_beg_0" slope="0.00"/>
    </timestep>
    <timestep time="32.00">
        <vehicle id="stopped" x="49.96" y="-1.65" angle="90.00" type="DEFAULT_VEHTYPE" speed="0.00" pos="49.96" lane="VODUGES_beg_0" slope="0.00"/>
    </timestep>
    <timestep time="33.00">
        <vehicle id="stopped" x="49.96" y="-1.65" angle="90.00" type="DEFAULT_VEHTYPE" speed="0.00" pos="49.96" lane="VODUGES_beg_0" slope="0.00"/>
    </timestep>
    <timestep time="34.00">
        <vehicle id="stopped" x="49.96" y="-1.65" angle="90.00" type="DEFAULT_VEHTYPE" speed="0.00" pos="49.96" lane="VODUGES_beg_0" slope="0.00"/>
    </timestep>
    <timestep time="35.00">
        <vehicle id="stopped" x="49.96" y="-1.65" angle="90.00" type="DEFAULT_VEHTYPE" speed="0.00" pos="49.96" lane="VODUGES_beg_0" slope="0.00"/>
    </timestep>
    <timestep time="36.00">
        <vehicle id="stopped" x="49.96" y="-1.65" angle="90.00" type="DEFAULT_VEHTYPE" speed="0.00" pos="49.96" lane="VODUGES_beg_0" slope="0.00"/>
    </timestep>
    <timestep time="37.00">
        <vehicle id="stopped" x="49.96" y="-1.65" angle="90.00" type="DEFAULT_VEHTYPE" speed="0.00" pos="49.96" lane="VODUGES_beg_0" slope="0.00"/>
    </timestep>
    <timestep time="38.00">
        <vehicle id="stopped" x="49.96" y="-1.65" angle="90.00" type="DEFAULT_VEHTYPE" speed="0.00" pos="49.96" lane="VODUGES_beg_0" slope="0.00"/>
    </timestep>
    <timestep time="39.00">
        <vehicle id="stopped" x="49.96" y="-1.65" angle="90.00" type="DEFAULT_VEHTYPE" speed="0.00" pos="49.96" lane="VODUGES_beg_0" slope="0.00"/>
    </timestep>
    <timestep time="40.00">
        <vehicle id="stopped" x="49.96" y="-1.65" angle="90.00" type="DEFAULT_VEHTYPE" speed="0.00" pos="49.96" lane="VODUGES_beg_0" slope="0.00"/>
    </timestep>
    <timestep time="41.00">
        <vehicle id="stopped" x="49.96" y="-1.65" angle="90.00" type="DEFAULT_VEHTYPE" speed="0.00" pos="49.96" lane="VODUGES_beg_0" slope="0.00"/>
    </timestep>
    <timestep time="42.00">
        <vehicle id="stopped" x="49.96" y="-1.65" angle="90.00" type="DEFAULT_VEHTYPE" speed="0.00" pos="49.96" lane="VODUGES_beg_0" slope="0.00"/>
    </timestep>
    <timestep time="43.00">
        <vehicle id="stopped" x="49.96" y="-1.65" angle="90.00" type="DEFAULT_VEHTYPE" speed="0.00" pos="49.96" lane="VODUGES_beg_0" slope="0.00"/>
    </timestep>
    <timestep time="44.00">
        <vehicle id="stopped" x="49.96" y="-1.65" angle="90.00" type="DEFAULT_VEHTYPE" speed="0.00" pos="49.96" lane="VODUGES_beg_0" slope="0.00"/>
    </timestep>
    <timestep time="45.00">
        <vehicle id="stopped" x="49.96" y="-1.65" angle="90.00" type="DEFAULT_VEHTYPE" speed="0.00" pos="49.96" lane="VODUGES_beg_0" slope="0.00"/>
    </timestep>
    <timestep time="46.00">
        <vehicle id="stopped" x="49.96" y="-1.65" angle="90.00" type="DEFAULT_VEHTYPE" speed="0.00" pos="49.96" lane="VODUGES_beg_0" slope="0.00"/>
    </timestep>
    <timestep time="47.00">
        <vehicle id="stopped" x="49.96" y="-1.65" angle="90.00" type="DEFAULT_VEHTYPE" speed="0.00" pos="49.96" lane="VODUGES_beg_0" slope="0.00"/>
    </timestep>
    <timestep time="48.00">
        <vehicle id="stopped" x="49.96" y="-1.65" angle="90.00" type="DEFAULT_VEHTYPE" speed="0.00" pos="49.96" lane="VODUGES_beg_0" slope="0.00"/>
    </timestep>
    <timestep time="49.00">
        <vehicle id="stopped" x="49.96" y="-1.65" angle="90.00" type="DEFAULT_VEHTYPE" speed="0.00" pos="49.96" lane="VODUGES_beg_0" slope="0.00"/>
    </timestep>
    <timestep time="50.00">
        <vehicle id="stopped" x="49.96" y="-1.65" angle="90.00" type="DEFAULT_VEHTYPE" speed="0.00" pos="49.96" lane="VODUGES_beg_0" slope="0.00"/>
    </timestep>
    <timestep time="51.00">
        <vehicle id="stopped" x="49.96" y="-1.65" angle="90.00" type="DEFAULT_VEHTYPE" speed="0.00" pos="49.96" lane="VODUGES_beg_0" slope="0.00"/>
    </timestep>
    <timestep time="52.00">
        <vehicle id="stopped" x="49.96" y="-1.65" angle="90.00" type="DEFAULT_VEHTYPE" speed="0.00" pos="49.96" lane="VODUGES_beg_0" slope="0.00"/>
    </timestep>
    <timestep time="53.00">
        <vehicle id="stopped" x="49.96" y="-1.65" angle="90.00" type="DEFAULT_VEHTYPE" speed="0.00" pos="49.96" lane="VODUGES_beg_0" slope="0.00"/>
    </timestep>
    <timestep time="54.00">
        <vehicle id="stopped" x="49.96" y="-1.65" angle="90.00" type="DEFAULT_VEHTYPE" speed="0.00" pos="49.96" lane="VODUGES_beg_0" slope="0.00"/>
    </timestep>
    <timestep time="55.00">
        <vehicle id="stopped" x="49.96" y="-1.65" angle="90.00" type="DEFAULT_VEHTYPE" speed="0.00" pos="49.96" lane="VODUGES_beg_0" slope="0.00"/>
    </timestep>
    <timestep time="56.00">
        <vehicle id="stopped" x="49.96" y="-1.65" angle="90.00" type="DEFAULT_VEHTYPE" speed="0.00" pos="49.96" lane="VODUGES_beg_0" slope="0.00"/>
    </timestep>
    <timestep time="57.00">
        <vehicle id="stopped" x="49.96" y="-1.65" angle="90.00" type="DEFAULT_VEHTYPE" speed="0.00" pos="49.96" lane="VODUGES_beg_0" slope="0.00"/>
    </timestep>
    <timestep time="58.00">
        <vehicle id="stopped" x="49.96" y="-1.65" angle="90.00" type="DEFAULT_VEHTYPE" speed="0.00" pos="49.96" lane="VODUGES_beg_0" slope="0.00"/>
    </timestep>
    <timestep time="59.00">
        <vehicle id="stopped" x="49.96" y="-1.65" angle="90.00" type="DEFAULT_VEHTYPE" speed="0.00" pos="49.96" lane="VODUGES_beg_0" slope="0.00"/>
    </timestep>
    <timestep time="60.00">
        <vehicle id="stopped" x="49.96" y="-1.65" angle="90.00" type="DEFAULT_VEHTYPE" speed="0.00" pos="49.96" lane="VODUGES_beg_0" slope="0.00"/>
    </timestep>
    <timestep time="61.00">
        <vehicle id="stopped" x="49.96" y="-1.65" angle="90.00" type="DEFAULT_VEHTYPE" speed="0.00" pos="49.96" lane="VODUGES_beg_0" slope="0.00"/>
    </timestep>
    <timestep time="62.00">
        <vehicle id="stopped" x="49.96" y="-1.65" angle="90.00" type="DEFAULT_VEHTYPE" speed="0.00" pos="49.96" lane="VODUGES_beg_0" slope="0.00"/>
    </timestep>
    <timestep time="63.00">
        <vehicle id="stopped" x="49.96" y="-1.65" angle="90.00" type="DEFAULT_VEHTYPE" speed="0.00" pos="49.96" lane="VODUGES_beg_0" slope="0.00"/>
    </timestep>
    <timestep time="64.00">
        <vehicle id="stopped" x="49.96" y="-1.65" angle="90.00" type="DEFAULT_VEHTYPE" speed="0.00" pos="49.96" lane="VODUGES_beg_0" slope="0.00"/>
    </timestep>
    <timestep time="65.00">
        <vehicle id="stopped" x="49.96" y="-1.65" angle="90.00" type="DEFAULT_VEHTYPE" speed="0.00" pos="49.96" lane="VODUGES_beg_0" slope="0.00"/>
    </timestep>
    <timestep time="66.00">
        <vehicle id="stopped" x="49.96" y="-1.65" angle="90.00" type="DEFAULT_VEHTYPE" speed="0.00" pos="49.96" lane="VODUGES_beg_0" slope="0.00"/>
    </timestep>
    <timestep time="67.00">
        <vehicle id="stopped" x="49.96" y="-1.65" angle="90.00" type="DEFAULT_VEHTYPE" speed="0.00" pos="49.96" lane="VODUGES_beg_0" slope="0.00"/>
    </timestep>
    <timestep time="68.00">
        <vehicle id="stopped" x="49.96" y="-1.65" angle="90.00" type="DEFAULT_VEHTYPE" speed="0.00" pos="49.96" lane="VODUGES_beg_0" slope="0.00"/>
    </timestep>
    <timestep time="69.00">
        <vehicle id="stopped" x="49.96" y="-1.65" angle="90.00" type="DEFAULT_VEHTYPE" speed="0.00" pos="49.96" lane="VODUGES_beg_0" slope="0.00"/>
    </timestep>
    <timestep time="70.00">
        <vehicle id="stopped" x="49.96" y="-1.65" angle="90.00" type="DEFAULT_VEHTYPE" speed="0.00" pos="49.96" lane="VODUGES_beg_0" slope="0.00"/>
    </timestep>
    <timestep time="71.00">
        <vehicle id="stopped" x="49.96" y="-1.65" angle="90.00" type="DEFAULT_VEHTYPE" speed="0.00" pos="49.96" lane="VODUGES_beg_0" slope="0.00"/>
    </timestep>
    <timestep time="72.00">
        <vehicle id="stopped" x="49.96" y="-1.65" angle="90.00" type="DEFAULT_VEHTYPE" speed="0.00" pos="49.96" lane="VODUGES_beg_0" slope="0.00"/>
    </timestep>
    <timestep time="73.00">
        <vehicle id="stopped" x="49.96" y="-1.65" angle="90.00" type="DEFAULT_VEHTYPE" speed="0.00" pos="49.96" lane="VODUGES_beg_0" slope="0.00"/>
    </timestep>
    <timestep time="74.00">
        <vehicle id="stopped" x="49.96" y="-1.65" angle="90.00" type="DEFAULT_VEHTYPE" speed="0.00" pos="49.96" lane="VODUGES_beg_0" slope="0.00"/>
    </timestep>
    <timestep time="75.00">
        <vehicle id="stopped" x="49.96" y="-1.65" angle="90.00" type="DEFAULT_VEHTYPE" speed="0.00" pos="49.96" lane="VODUGES_beg_0" slope="0.00"/>
    </timestep>
    <timestep time="76.00">
        <vehicle id="stopped" x="49.96" y="-1.65" angle="90.00" type="DEFAULT_VEHTYPE" speed="0.00" pos="49.96" lane="VODUGES_beg_0" slope="0.00"/>
    </timestep>
    <timestep time="77.00">
        <vehicle id="stopped" x="49.96" y="-1.65" angle="90.00" type="DEFAULT_VEHTYPE" speed="0.00" pos="49.96" lane="VODUGES_beg_0" slope="0.00"/>
    </timestep>
    <timestep time="78.00">
        <vehicle id="stopped" x="49.96" y="-1.65" angle="90.00" type="DEFAULT_VEHTYPE" speed="0.00" pos="49.96" lane="VODUGES_beg_0" slope="0.00"/>
    </timestep>
    <timestep time="79.00">
        <vehicle id="stopped" x="49.96" y="-1.65" angle="90.00" type="DEFAULT_VEHTYPE" speed="0.00" pos="49.96" lane="VODUGES_beg_0" slope="0.00"/>
    </timestep>
    <timestep time="80.00">
        <vehicle id="stopped" x="49.96" y="-1.65" angle="90.00" type="DEFAULT_VEHTYPE" speed="0.00" pos="49.96" lane="VODUGES_beg_0" slope="0.00"/>
    </timestep>
    <timestep time="81.00">
        <vehicle id="stopped" x="49.96" y="-1.65" angle="90.00" type="DEFAULT_VEHTYPE" speed="0.00" pos="49.96" lane="VODUGES_beg_0" slope="0.00"/>
    </timestep>
    <timestep time="82.00">
        <vehicle id="stopped" x="49.96" y="-1.65" angle="90.00" type="DEFAULT_VEHTYPE" speed="0.00" pos="49.96" lane="VODUGES_beg_0" slope="0.00"/>
    </timestep>
    <timestep time="83.00">
        <vehicle id="stopped" x="49.96" y="-1.65" angle="90.00" type="DEFAULT_VEHTYPE" speed="0.00" pos="49.96" lane="VODUGES_beg_0" slope="0.00"/>
    </timestep>
    <timestep time="84.00">
        <vehicle id="stopped" x="49.96" y="-1.65" angle="90.00" type="DEFAULT_VEHTYPE" speed="0.00" pos="49.96" lane="VODUGES_beg_0" slope="0.00"/>
    </timestep>
    <timestep time="85.00">
        <vehicle id="stopped" x="49.96" y="-1.65" angle="90.00" type="DEFAULT_VEHTYPE" speed="0.00" pos="49.96" lane="VODUGES_beg_0" slope="0.00"/>
    </timestep>
    <timestep time="86.00">
        <vehicle id="stopped" x="49.96" y="-1.65" angle="90.00" type="DEFAULT_VEHTYPE" speed="0.00" pos="49.96" lane="VODUGES_beg_0" slope="0.00"/>
    </timestep>
    <timestep time="87.00">
        <vehicle id="stopped" x="49.96" y="-1.65" angle="90.00" type="DEFAULT_VEHTYPE" speed="0.00" pos="49.96" lane="VODUGES_beg_0" slope="0.00"/>
    </timestep>
    <timestep time="88.00">
        <vehicle id="stopped" x="49.96" y="-1.65" angle="90.00" type="DEFAULT_VEHTYPE" speed="0.00" pos="49.96" lane="VODUGES_beg_0" slope="0.00"/>
    </timestep>
    <timestep time="89.00">
        <vehicle id="stopped" x="49.96" y="-1.65" angle="90.00" type="DEFAULT_VEHTYPE" speed="0.00" pos="49.96" lane="VODUGES_beg_0" slope="0.00"/>
    </timestep>
    <timestep time="90.00">
        <vehicle id="stopped" x="49.96" y="-1.65" angle="90.00" type="DEFAULT_VEHTYPE" speed="0.00" pos="49.96" lane="VODUGES_beg_0" slope="0.00"/>
    </timestep>
    <timestep time="91.00">
        <vehicle id="stopped" x="49.96" y="-1.65" angle="90.00" type="DEFAULT_VEHTYPE" speed="0.00" pos="49.96" lane="VODUGES_beg_0" slope="0.00"/>
    </timestep>
    <timestep time="92.00">
        <vehicle id="stopped" x="49.96" y="-1.65" angle="90.00" type="DEFAULT_VEHTYPE" speed="0.00" pos="49.96" lane="VODUGES_beg_0" slope="0.00"/>
    </timestep>
    <timestep time="93.00">
        <vehicle id="stopped" x="49.96" y="-1.65" angle="90.00" type="DEFAULT_VEHTYPE" speed="0.00" pos="49.96" lane="VODUGES_beg_0" slope="0.00"/>
    </timestep>
    <timestep time="94.00">
        <vehicle id="stopped" x="49.96" y="-1.65" angle="90.00" type="DEFAULT_VEHTYPE" speed="0.00" pos="49.96" lane="VODUGES_beg_0" slope="0.00"/>
    </timestep>
    <timestep time="95.00">
        <vehicle id="stopped" x="49.96" y="-1.65" angle="90.00" type="DEFAULT_VEHTYPE" speed="0.00" pos="49.96" lane="VODUGES_beg_0" slope="0.00"/>
    </timestep>
    <timestep time="96.00">
        <vehicle id="stopped" x="49.96" y="-1.65" angle="90.00" type="DEFAULT_VEHTYPE" speed="0.00" pos="49.96" lane="VODUGES_beg_0" slope="0.00"/>
    </timestep>
    <timestep time="97.00">
        <vehicle id="stopped" x="49.96" y="-1.65" angle="90.00" type="DEFAULT_VEHTYPE" speed="0.00" pos="49.96" lane="VODUGES_beg_0" slope="0.00"/>
    </timestep>
    <timestep time="98.00">
        <vehicle id="stopped" x="49.96" y="-1.65" angle="90.00" type="DEFAULT_VEHTYPE" speed="0.00" pos="49.96" lane="VODUGES_beg_0" slope="0.00"/>
    </timestep>
    <timestep time="99.00">
        <vehicle id="stopped" x="49.96" y="-1.65" angle="90.00" type="DEFAULT_VEHTYPE" speed="0.00" pos="49.96" lane="VODUGES_beg_0" slope="0.00"/>
    </timestep>
    <timestep time="100.00">
        <vehicle id="stopped" x="49.96" y="-1.65" angle="90.00" type="DEFAULT_VEHTYPE" speed="0.00" pos="49.96" lane="VODUGES_beg_0" slope="0.00"/>
    </timestep>
    <timestep time="101.00">
        <vehicle id="stopped" x="49.96" y="-1.65" angle="90.00" type="DEFAULT_VEHTYPE" speed="0.00" pos="49.96" lane="VODUGES_beg_0" slope="0.00"/>
    </timestep>
    <timestep time="102.00">
        <vehicle id="stopped" x="49.96" y="-1.65" angle="90.00" type="DEFAULT_VEHTYPE" speed="0.00" pos="49.96" lane="VODUGES_beg_0" slope="0.00"/>
    </timestep>
    <timestep time="103.00">
        <vehicle id="stopped" x="49.96" y="-1.65" angle="90.00" type="DEFAULT_VEHTYPE" speed="0.00" pos="49.96" lane="VODUGES_beg_0" slope="0.00"/>
    </timestep>
    <timestep time="104.00">
        <vehicle id="stopped" x="49.96" y="-1.65" angle="90.00" type="DEFAULT_VEHTYPE" speed="0.00" pos="49.96" lane="VODUGES_beg_0" slope="0.00"/>
    </timestep>
    <timestep time="105.00">
        <vehicle id="stopped" x="49.96" y="-1.65" angle="90.00" type="DEFAULT_VEHTYPE" speed="0.00" pos="49.96" lane="VODUGES_beg_0" slope="0.00"/>
    </timestep>
    <timestep time="106.00">
        <vehicle id="stopped" x="49.96" y="-1.65" angle="90.00" type="DEFAULT_VEHTYPE" speed="0.00" pos="49.96" lane="VODUGES_beg_0" slope="0.00"/>
    </timestep>
    <timestep time="107.00">
        <vehicle id="stopped" x="49.96" y="-1.65" angle="90.00" type="DEFAULT_VEHTYPE" speed="0.00" pos="49.96" lane="VODUGES_beg_0" slope="0.00"/>
    </timestep>
    <timestep time="108.00">
        <vehicle id="stopped" x="49.98" y="-1.65" angle="90.00" type="DEFAULT_VEHTYPE" speed="0.04" pos="49.98" lane="VODUGES_beg_0" slope="0.00"/>
    </timestep>
    <timestep time="109.00">
        <vehicle id="stopped" x="51.05" y="-1.65" angle="90.00" type="DEFAULT_VEHTYPE" speed="2.10" pos="51.05" lane="VODUGES_beg_0" slope="0.00"/>
    </timestep>