<?xml version="1.0" encoding="UTF-8"?>

<!-- generated on Mon Sep 12 13:12:31 2016 by SUMO Version dev-SVN-r21424
<?xml version="1.0" encoding="UTF-8"?>

<configuration xmlns:xsi="http://www.w3.org/2001/XMLSchema-instance" xsi:noNamespaceSchemaLocation="http://sumo.dlr.de/xsd/sumoConfiguration.xsd">

    <input>
        <net-file value="net.net.xml"/>
        <route-files value="input_routes.rou.xml"/>
    </input>

    <output>
        <fcd-output value="fcd.xml"/>
        <tripinfo-output value="tripinfos.xml"/>
    </output>

    <processing>
        <step-method.ballistic value="true"/>
    </processing>

    <report>
        <xml-validation value="never"/>
        <no-step-log value="true"/>
    </report>

</configuration>
-->

<fcd-export xmlns:xsi="http://www.w3.org/2001/XMLSchema-instance" xsi:noNamespaceSchemaLocation="http://sumo.dlr.de/xsd/fcd_file.xsd">
    <timestep time="0.00">
        <vehicle id="oncoming1" x="100.00" y="1.65" angle="270.00" type="DEFAULT_VEHTYPE" speed="0.00" pos="100.00" lane="-VODUGES_beg_0" slope="0.00"/>
        <vehicle id="oncoming2" x="200.00" y="1.65" angle="270.00" type="DEFAULT_VEHTYPE" speed="0.00" pos="0.00" lane="-VODUGES_beg_0" slope="0.00"/>
        <vehicle id="stopped" x="40.00" y="-1.65" angle="90.00" type="DEFAULT_VEHTYPE" speed="0.00" pos="40.00" lane="VODUGES_beg_0" slope="0.00"/>
    </timestep>
    <timestep time="1.00">
        <vehicle id="oncoming1" x="99.16" y="1.65" angle="270.00" type="DEFAULT_VEHTYPE" speed="1.67" pos="100.84" lane="-VODUGES_beg_0" slope="0.00"/>
        <vehicle id="oncoming2" x="198.73" y="1.65" angle="270.00" type="DEFAULT_VEHTYPE" speed="2.54" pos="1.27" lane="-VODUGES_beg_0" slope="0.00"/>
        <vehicle id="overtaking" x="0.00" y="-1.65" angle="90.00" type="DEFAULT_VEHTYPE" speed="0.00" pos="0.00" lane="VODUGES_beg_0" slope="0.00"/>
        <vehicle id="stopped" x="40.72" y="-1.65" angle="90.00" type="DEFAULT_VEHTYPE" speed="1.44" pos="40.72" lane="VODUGES_beg_0" slope="0.00"/>
    </timestep>
    <timestep time="2.00">
        <vehicle id="oncoming1" x="96.22" y="1.65" angle="270.00" type="DEFAULT_VEHTYPE" speed="4.22" pos="103.78" lane="-VODUGES_beg_0" slope="0.00"/>
        <vehicle id="oncoming2" x="195.37" y="1.65" angle="270.00" type="DEFAULT_VEHTYPE" speed="4.17" pos="4.63" lane="-VODUGES_beg_0" slope="0.00"/>
        <vehicle id="overtaking" x="0.92" y="-1.65" angle="90.00" type="DEFAULT_VEHTYPE" speed="1.83" pos="0.92" lane="VODUGES_beg_0" slope="0.00"/>
        <vehicle id="stopped" x="43.14" y="-1.65" angle="90.00" type="DEFAULT_VEHTYPE" speed="3.40" pos="43.14" lane="VODUGES_beg_0" slope="0.00"/>
    </timestep>
    <timestep time="3.00">
        <vehicle id="oncoming1" x="91.18" y="1.65" angle="270.00" type="DEFAULT_VEHTYPE" speed="5.85" pos="108.82" lane="-VODUGES_beg_0" slope="0.00"/>
        <vehicle id="oncoming2" x="189.90" y="1.65" angle="270.00" type="DEFAULT_VEHTYPE" speed="6.77" pos="10.10" lane="-VODUGES_beg_0" slope="0.00"/>
        <vehicle id="overtaking" x="3.70" y="-1.65" angle="90.00" type="DEFAULT_VEHTYPE" speed="3.72" pos="3.70" lane="VODUGES_beg_0" slope="0.00"/>
        <vehicle id="stopped" x="47.15" y="-1.65" angle="90.00" type="DEFAULT_VEHTYPE" speed="4.60" pos="47.15" lane="VODUGES_beg_0" slope="0.00"/>
    </timestep>
    <timestep time="4.00">
        <vehicle id="oncoming1" x="84.33" y="1.65" angle="270.00" type="DEFAULT_VEHTYPE" speed="7.86" pos="115.67" lane="-VODUGES_beg_0" slope="0.00"/>
        <vehicle id="oncoming2" x="182.20" y="1.65" angle="270.00" type="DEFAULT_VEHTYPE" speed="8.63" pos="17.80" lane="-VODUGES_beg_0" slope="0.00"/>
        <vehicle id="overtaking" x="8.42" y="-1.65" angle="90.00" type="DEFAULT_VEHTYPE" speed="5.72" pos="8.42" lane="VODUGES_beg_0" slope="0.00"/>
        <vehicle id="stopped" x="49.75" y="-1.65" angle="90.00" type="DEFAULT_VEHTYPE" speed="0.61" pos="49.75" lane="VODUGES_beg_0" slope="0.00"/>
    </timestep>
    <timestep time="5.00">
        <vehicle id="oncoming1" x="75.21" y="1.65" angle="270.00" type="DEFAULT_VEHTYPE" speed="10.38" pos="124.79" lane="-VODUGES_beg_0" slope="0.00"/>
        <vehicle id="oncoming2" x="172.84" y="1.65" angle="270.00" type="DEFAULT_VEHTYPE" speed="10.09" pos="27.16" lane="-VODUGES_beg_0" slope="0.00"/>
        <vehicle id="overtaking" x="15.26" y="-1.65" angle="90.00" type="DEFAULT_VEHTYPE" speed="7.97" pos="15.26" lane="VODUGES_beg_0" slope="0.00"/>
        <vehicle id="stopped" x="50.00" y="-1.65" angle="90.00" type="DEFAULT_VEHTYPE" speed="0.00" pos="50.00" lane="VODUGES_beg_0" slope="0.00"/>
    </timestep>
    <timestep time="6.00">
        <vehicle id="oncoming1" x="63.97" y="1.65" angle="270.00" type="DEFAULT_VEHTYPE" speed="12.09" pos="136.03" lane="-VODUGES_beg_0" slope="0.00"/>
        <vehicle id="oncoming2" x="161.48" y="1.65" angle="270.00" type="DEFAULT_VEHTYPE" speed="12.63" pos="38.52" lane="-VODUGES_beg_0" slope="0.00"/>
        <vehicle id="overtaking" x="24.33" y="-1.65" angle="90.00" type="DEFAULT_VEHTYPE" speed="10.16" pos="24.33" lane="VODUGES_beg_0" slope="0.00"/>
        <vehicle id="stopped" x="50.00" y="-1.65" angle="90.00" type="DEFAULT_VEHTYPE" speed="0.00" pos="50.00" lane="VODUGES_beg_0" slope="0.00"/>
    </timestep>
    <timestep time="7.00">
        <vehicle id="oncoming1" x="51.18" y="1.65" angle="270.00" type="DEFAULT_VEHTYPE" speed="13.49" pos="148.82" lane="-VODUGES_beg_0" slope="0.00"/>
        <vehicle id="oncoming2" x="148.63" y="1.65" angle="270.00" type="DEFAULT_VEHTYPE" speed="13.07" pos="51.37" lane="-VODUGES_beg_0" slope="0.00"/>
        <vehicle id="overtaking" x="33.49" y="-1.65" angle="90.00" type="DEFAULT_VEHTYPE" speed="8.17" pos="33.49" lane="VODUGES_beg_0" slope="0.00"/>
        <vehicle id="stopped" x="50.00" y="-1.65" angle="90.00" type="DEFAULT_VEHTYPE" speed="0.00" pos="50.00" lane="VODUGES_beg_0" slope="0.00"/>
    </timestep>
    <timestep time="8.00">
        <vehicle id="oncoming1" x="38.02" y="1.65" angle="270.00" type="DEFAULT_VEHTYPE" speed="12.82" pos="161.98" lane="-VODUGES_beg_0" slope="0.00"/>
        <vehicle id="oncoming2" x="135.73" y="1.65" angle="270.00" type="DEFAULT_VEHTYPE" speed="12.74" pos="64.27" lane="-VODUGES_beg_0" slope="0.00"/>
        <vehicle id="overtaking" x="39.41" y="-1.65" angle="90.00" type="DEFAULT_VEHTYPE" speed="3.67" pos="39.41" lane="VODUGES_beg_0" slope="0.00"/>
        <vehicle id="stopped" x="50.00" y="-1.65" angle="90.00" type="DEFAULT_VEHTYPE" speed="0.00" pos="50.00" lane="VODUGES_beg_0" slope="0.00"/>
    </timestep>
    <timestep time="9.00">
        <vehicle id="oncoming1" x="25.02" y="1.65" angle="270.00" type="DEFAULT_VEHTYPE" speed="13.18" pos="174.98" lane="-VODUGES_beg_0" slope="0.00"/>
        <vehicle id="oncoming2" x="122.57" y="1.65" angle="270.00" type="DEFAULT_VEHTYPE" speed="13.58" pos="77.43" lane="-VODUGES_beg_0" slope="0.00"/>
        <vehicle id="overtaking" x="41.96" y="1.65" angle="90.00" type="DEFAULT_VEHTYPE" speed="1.44" pos="158.04" lane="-VODUGES_beg_0" slope="0.00"/>
        <vehicle id="stopped" x="50.00" y="-1.65" angle="90.00" type="DEFAULT_VEHTYPE" speed="0.00" pos="50.00" lane="VODUGES_beg_0" slope="0.00"/>
    </timestep>
    <timestep time="10.00">
        <vehicle id="oncoming1" x="11.51" y="1.65" angle="270.00" type="DEFAULT_VEHTYPE" speed="13.85" pos="188.49" lane="-VODUGES_beg_0" slope="0.00"/>
        <vehicle id="oncoming2" x="109.33" y="1.65" angle="270.00" type="DEFAULT_VEHTYPE" speed="12.90" pos="90.67" lane="-VODUGES_beg_0" slope="0.00"/>
        <vehicle id="overtaking" x="44.50" y="1.65" angle="90.00" type="DEFAULT_VEHTYPE" speed="3.65" pos="155.50" lane="-VODUGES_beg_0" slope="0.00"/>
        <vehicle id="stopped" x="50.00" y="-1.65" angle="90.00" type="DEFAULT_VEHTYPE" speed="0.00" pos="50.00" lane="VODUGES_beg_0" slope="0.00"/>
    </timestep>
    <timestep time="11.00">
        <vehicle id="oncoming2" x="95.96" y="1.65" angle="270.00" type="DEFAULT_VEHTYPE" speed="13.85" pos="104.04" lane="-VODUGES_beg_0" slope="0.00"/>
        <vehicle id="overtaking" x="48.83" y="1.65" angle="90.00" type="DEFAULT_VEHTYPE" speed="5.00" pos="151.17" lane="-VODUGES_beg_0" slope="0.00"/>
        <vehicle id="stopped" x="50.00" y="-1.65" angle="90.00" type="DEFAULT_VEHTYPE" speed="0.00" pos="50.00" lane="VODUGES_beg_0" slope="0.00"/>
    </timestep>
    <timestep time="12.00">
        <vehicle id="oncoming2" x="82.30" y="1.65" angle="270.00" type="DEFAULT_VEHTYPE" speed="13.46" pos="117.70" lane="-VODUGES_beg_0" slope="0.00"/>
        <vehicle id="overtaking" x="54.69" y="1.65" angle="90.00" type="DEFAULT_VEHTYPE" speed="6.71" pos="145.31" lane="-VODUGES_beg_0" slope="0.00"/>
        <vehicle id="stopped" x="50.00" y="-1.65" angle="90.00" type="DEFAULT_VEHTYPE" speed="0.00" pos="50.00" lane="VODUGES_beg_0" slope="0.00"/>
    </timestep>
    <timestep time="13.00">
        <vehicle id="oncoming2" x="68.71" y="1.65" angle="270.00" type="DEFAULT_VEHTYPE" speed="13.73" pos="131.29" lane="-VODUGES_beg_0" slope="0.00"/>
        <vehicle id="overtaking" x="62.61" y="-1.65" angle="90.00" type="DEFAULT_VEHTYPE" speed="9.14" pos="62.61" lane="VODUGES_beg_0" slope="0.00"/>
        <vehicle id="stopped" x="50.00" y="-1.65" angle="90.00" type="DEFAULT_VEHTYPE" speed="0.00" pos="50.00" lane="VODUGES_beg_0" slope="0.00"/>
    </timestep>
    <timestep time="14.00">
        <vehicle id="oncoming2" x="55.53" y="1.65" angle="270.00" type="DEFAULT_VEHTYPE" speed="12.64" pos="144.47" lane="-VODUGES_beg_0" slope="0.00"/>
        <vehicle id="overtaking" x="72.79" y="-1.65" angle="90.00" type="DEFAULT_VEHTYPE" speed="11.21" pos="72.79" lane="VODUGES_beg_0" slope="0.00"/>
        <vehicle id="stopped" x="50.00" y="-1.65" angle="90.00" type="DEFAULT_VEHTYPE" speed="0.00" pos="50.00" lane="VODUGES_beg_0" slope="0.00"/>
    </timestep>
    <timestep time="15.00">
        <vehicle id="oncoming2" x="42.41" y="1.65" angle="270.00" type="DEFAULT_VEHTYPE" speed="13.60" pos="157.59" lane="-VODUGES_beg_0" slope="0.00"/>
        <vehicle id="overtaking" x="85.13" y="-1.65" angle="90.00" type="DEFAULT_VEHTYPE" speed="13.47" pos="85.13" lane="VODUGES_beg_0" slope="0.00"/>
        <vehicle id="stopped" x="50.00" y="-1.65" angle="90.00" type="DEFAULT_VEHTYPE" speed="0.00" pos="50.00" lane="VODUGES_beg_0" slope="0.00"/>
    </timestep>
    <timestep time="16.00">
        <vehicle id="oncoming2" x="29.03" y="1.65" angle="270.00" type="DEFAULT_VEHTYPE" speed="13.15" pos="170.97" lane="-VODUGES_beg_0" slope="0.00"/>
        <vehicle id="overtaking" x="98.70" y="-1.65" angle="90.00" type="DEFAULT_VEHTYPE" speed="13.67" pos="98.70" lane="VODUGES_beg_0" slope="0.00"/>
        <vehicle id="stopped" x="50.00" y="-1.65" angle="90.00" type="DEFAULT_VEHTYPE" speed="0.00" pos="50.00" lane="VODUGES_beg_0" slope="0.00"/>
    </timestep>
    <timestep time="17.00">
        <vehicle id="oncoming2" x="16.04" y="1.65" angle="270.00" type="DEFAULT_VEHTYPE" speed="12.83" pos="183.96" lane="-VODUGES_beg_0" slope="0.00"/>
        <vehicle id="overtaking" x="112.32" y="-1.65" angle="90.00" type="DEFAULT_VEHTYPE" speed="13.58" pos="112.32" lane="VODUGES_beg_0" slope="0.00"/>
        <vehicle id="stopped" x="50.00" y="-1.65" angle="90.00" type="DEFAULT_VEHTYPE" speed="0.00" pos="50.00" lane="VODUGES_beg_0" slope="0.00"/>
    </timestep>
    <timestep time="18.00">
        <vehicle id="oncoming2" x="3.12" y="1.65" angle="270.00" type="DEFAULT_VEHTYPE" speed="13.02" pos="196.88" lane="-VODUGES_beg_0" slope="0.00"/>
        <vehicle id="overtaking" x="125.99" y="-1.65" angle="90.00" type="DEFAULT_VEHTYPE" speed="13.77" pos="125.99" lane="VODUGES_beg_0" slope="0.00"/>
        <vehicle id="stopped" x="50.00" y="-1.65" angle="90.00" type="DEFAULT_VEHTYPE" speed="0.00" pos="50.00" lane="VODUGES_beg_0" slope="0.00"/>
    </timestep>
    <timestep time="19.00">
        <vehicle id="overtaking" x="139.36" y="-1.65" angle="90.00" type="DEFAULT_VEHTYPE" speed="12.96" pos="139.36" lane="VODUGES_beg_0" slope="0.00"/>
        <vehicle id="stopped" x="50.00" y="-1.65" angle="90.00" type="DEFAULT_VEHTYPE" speed="0.00" pos="50.00" lane="VODUGES_beg_0" slope="0.00"/>
    </timestep>
    <timestep time="20.00">
        <vehicle id="overtaking" x="152.34" y="-1.65" angle="90.00" type="DEFAULT_VEHTYPE" speed="12.99" pos="152.34" lane="VODUGES_beg_0" slope="0.00"/>
        <vehicle id="stopped" x="50.00" y="-1.65" angle="90.00" type="DEFAULT_VEHTYPE" speed="0.00" pos="50.00" lane="VODUGES_beg_0" slope="0.00"/>
    </timestep>
    <timestep time="21.00">
        <vehicle id="overtaking" x="165.17" y="-1.65" angle="90.00" type="DEFAULT_VEHTYPE" speed="12.67" pos="165.17" lane="VODUGES_beg_0" slope="0.00"/>
        <vehicle id="stopped" x="50.00" y="-1.65" angle="90.00" type="DEFAULT_VEHTYPE" speed="0.00" pos="50.00" lane="VODUGES_beg_0" slope="0.00"/>
    </timestep>
    <timestep time="22.00">
        <vehicle id="overtaking" x="177.83" y="-1.65" angle="90.00" type="DEFAULT_VEHTYPE" speed="12.64" pos="177.83" lane="VODUGES_beg_0" slope="0.00"/>
        <vehicle id="stopped" x="50.00" y="-1.65" angle="90.00" type="DEFAULT_VEHTYPE" speed="0.00" pos="50.00" lane="VODUGES_beg_0" slope="0.00"/>
    </timestep>
    <timestep time="23.00">
        <vehicle id="overtaking" x="190.89" y="-1.65" angle="90.00" type="DEFAULT_VEHTYPE" speed="13.49" pos="190.89" lane="VODUGES_beg_0" slope="0.00"/>
        <vehicle id="stopped" x="50.00" y="-1.65" angle="90.00" type="DEFAULT_VEHTYPE" speed="0.00" pos="50.00" lane="VODUGES_beg_0" slope="0.00"/>
    </timestep>
    <timestep time="24.00">
        <vehicle id="stopped" x="50.00" y="-1.65" angle="90.00" type="DEFAULT_VEHTYPE" speed="0.00" pos="50.00" lane="VODUGES_beg_0" slope="0.00"/>
    </timestep>
    <timestep time="25.00">
        <vehicle id="stopped" x="50.00" y="-1.65" angle="90.00" type="DEFAULT_VEHTYPE" speed="0.00" pos="50.00" lane="VODUGES_beg_0" slope="0.00"/>
    </timestep>
    <timestep time="26.00">
        <vehicle id="stopped" x="50.00" y="-1.65" angle="90.00" type="DEFAULT_VEHTYPE" speed="0.00" pos="50.00" lane="VODUGES_beg_0" slope="0.00"/>
    </timestep>
    <timestep time="27.00">
        <vehicle id="stopped" x="50.00" y="-1.65" angle="90.00" type="DEFAULT_VEHTYPE" speed="0.00" pos="50.00" lane="VODUGES_beg_0" slope="0.00"/>
    </timestep>
    <timestep time="28.00">
        <vehicle id="stopped" x="50.00" y="-1.65" angle="90.00" type="DEFAULT_VEHTYPE" speed="0.00" pos="50.00" lane="VODUGES_beg_0" slope="0.00"/>
    </timestep>
    <timestep time="29.00">
        <vehicle id="stopped" x="50.00" y="-1.65" angle="90.00" type="DEFAULT_VEHTYPE" speed="0.00" pos="50.00" lane="VODUGES_beg_0" slope="0.00"/>
    </timestep>
    <timestep time="30.00">
        <vehicle id="stopped" x="50.00" y="-1.65" angle="90.00" type="DEFAULT_VEHTYPE" speed="0.00" pos="50.00" lane="VODUGES_beg_0" slope="0.00"/>
    </timestep>
    <timestep time="31.00">
        <vehicle id="stopped" x="50.00" y="-1.65" angle="90.00" type="DEFAULT_VEHTYPE" speed="0.00" pos="50.00" lane="VODUGES_beg_0" slope="0.00"/>
    </timestep>
    <timestep time="32.00">
        <vehicle id="stopped" x="50.00" y="-1.65" angle="90.00" type="DEFAULT_VEHTYPE" speed="0.00" pos="50.00" lane="VODUGES_beg_0" slope="0.00"/>
    </timestep>
    <timestep time="33.00">
        <vehicle id="stopped" x="50.00" y="-1.65" angle="90.00" type="DEFAULT_VEHTYPE" speed="0.00" pos="50.00" lane="VODUGES_beg_0" slope="0.00"/>
    </timestep>
    <timestep time="34.00">
        <vehicle id="stopped" x="50.00" y="-1.65" angle="90.00" type="DEFAULT_VEHTYPE" speed="0.00" pos="50.00" lane="VODUGES_beg_0" slope="0.00"/>
    </timestep>
    <timestep time="35.00">
        <vehicle id="stopped" x="50.00" y="-1.65" angle="90.00" type="DEFAULT_VEHTYPE" speed="0.00" pos="50.00" lane="VODUGES_beg_0" slope="0.00"/>
    </timestep>
    <timestep time="36.00">
        <vehicle id="stopped" x="50.00" y="-1.65" angle="90.00" type="DEFAULT_VEHTYPE" speed="0.00" pos="50.00" lane="VODUGES_beg_0" slope="0.00"/>
    </timestep>
    <timestep time="37.00">
        <vehicle id="stopped" x="50.00" y="-1.65" angle="90.00" type="DEFAULT_VEHTYPE" speed="0.00" pos="50.00" lane="VODUGES_beg_0" slope="0.00"/>
    </timestep>
    <timestep time="38.00">
        <vehicle id="stopped" x="50.00" y="-1.65" angle="90.00" type="DEFAULT_VEHTYPE" speed="0.00" pos="50.00" lane="VODUGES_beg_0" slope="0.00"/>
    </timestep>
    <timestep time="39.00">
        <vehicle id="stopped" x="50.00" y="-1.65" angle="90.00" type="DEFAULT_VEHTYPE" speed="0.00" pos="50.00" lane="VODUGES_beg_0" slope="0.00"/>
    </timestep>
    <timestep time="40.00">
        <vehicle id="stopped" x="50.00" y="-1.65" angle="90.00" type="DEFAULT_VEHTYPE" speed="0.00" pos="50.00" lane="VODUGES_beg_0" slope="0.00"/>
    </timestep>
    <timestep time="41.00">
        <vehicle id="stopped" x="50.00" y="-1.65" angle="90.00" type="DEFAULT_VEHTYPE" speed="0.00" pos="50.00" lane="VODUGES_beg_0" slope="0.00"/>
    </timestep>
    <timestep time="42.00">
        <vehicle id="stopped" x="50.00" y="-1.65" angle="90.00" type="DEFAULT_VEHTYPE" speed="0.00" pos="50.00" lane="VODUGES_beg_0" slope="0.00"/>
    </timestep>
    <timestep time="43.00">
        <vehicle id="stopped" x="50.00" y="-1.65" angle="90.00" type="DEFAULT_VEHTYPE" speed="0.00" pos="50.00" lane="VODUGES_beg_0" slope="0.00"/>
    </timestep>
    <timestep time="44.00">
        <vehicle id="stopped" x="50.00" y="-1.65" angle="90.00" type="DEFAULT_VEHTYPE" speed="0.00" pos="50.00" lane="VODUGES_beg_0" slope="0.00"/>
    </timestep>
    <timestep time="45.00">
        <vehicle id="stopped" x="50.00" y="-1.65" angle="90.00" type="DEFAULT_VEHTYPE" speed="0.00" pos="50.00" lane="VODUGES_beg_0" slope="0.00"/>
    </timestep>
    <timestep time="46.00">
        <vehicle id="stopped" x="50.00" y="-1.65" angle="90.00" type="DEFAULT_VEHTYPE" speed="0.00" pos="50.00" lane="VODUGES_beg_0" slope="0.00"/>
    </timestep>
    <timestep time="47.00">
        <vehicle id="stopped" x="50.00" y="-1.65" angle="90.00" type="DEFAULT_VEHTYPE" speed="0.00" pos="50.00" lane="VODUGES_beg_0" slope="0.00"/>
    </timestep>
    <timestep time="48.00">
        <vehicle id="stopped" x="50.00" y="-1.65" angle="90.00" type="DEFAULT_VEHTYPE" speed="0.00" pos="50.00" lane="VODUGES_beg_0" slope="0.00"/>
    </timestep>
    <timestep time="49.00">
        <vehicle id="stopped" x="50.00" y="-1.65" angle="90.00" type="DEFAULT_VEHTYPE" speed="0.00" pos="50.00" lane="VODUGES_beg_0" slope="0.00"/>
    </timestep>
    <timestep time="50.00">
        <vehicle id="stopped" x="50.00" y="-1.65" angle="90.00" type="DEFAULT_VEHTYPE" speed="0.00" pos="50.00" lane="VODUGES_beg_0" slope="0.00"/>
    </timestep>
    <timestep time="51.00">
        <vehicle id="stopped" x="50.00" y="-1.65" angle="90.00" type="DEFAULT_VEHTYPE" speed="0.00" pos="50.00" lane="VODUGES_beg_0" slope="0.00"/>
    </timestep>
    <timestep time="52.00">
        <vehicle id="stopped" x="50.00" y="-1.65" angle="90.00" type="DEFAULT_VEHTYPE" speed="0.00" pos="50.00" lane="VODUGES_beg_0" slope="0.00"/>
    </timestep>
    <timestep time="53.00">
        <vehicle id="stopped" x="50.00" y="-1.65" angle="90.00" type="DEFAULT_VEHTYPE" speed="0.00" pos="50.00" lane="VODUGES_beg_0" slope="0.00"/>
    </timestep>
    <timestep time="54.00">
        <vehicle id="stopped" x="50.00" y="-1.65" angle="90.00" type="DEFAULT_VEHTYPE" speed="0.00" pos="50.00" lane="VODUGES_beg_0" slope="0.00"/>
    </timestep>
    <timestep time="55.00">
        <vehicle id="stopped" x="50.00" y="-1.65" angle="90.00" type="DEFAULT_VEHTYPE" speed="0.00" pos="50.00" lane="VODUGES_beg_0" slope="0.00"/>
    </timestep>
    <timestep time="56.00">
        <vehicle id="stopped" x="50.00" y="-1.65" angle="90.00" type="DEFAULT_VEHTYPE" speed="0.00" pos="50.00" lane="VODUGES_beg_0" slope="0.00"/>
    </timestep>
    <timestep time="57.00">
        <vehicle id="stopped" x="50.00" y="-1.65" angle="90.00" type="DEFAULT_VEHTYPE" speed="0.00" pos="50.00" lane="VODUGES_beg_0" slope="0.00"/>
    </timestep>
    <timestep time="58.00">
        <vehicle id="stopped" x="50.00" y="-1.65" angle="90.00" type="DEFAULT_VEHTYPE" speed="0.00" pos="50.00" lane="VODUGES_beg_0" slope="0.00"/>
    </timestep>
    <timestep time="59.00">
        <vehicle id="stopped" x="50.00" y="-1.65" angle="90.00" type="DEFAULT_VEHTYPE" speed="0.00" pos="50.00" lane="VODUGES_beg_0" slope="0.00"/>
    </timestep>
    <timestep time="60.00">
        <vehicle id="stopped" x="50.00" y="-1.65" angle="90.00" type="DEFAULT_VEHTYPE" speed="0.00" pos="50.00" lane="VODUGES_beg_0" slope="0.00"/>
    </timestep>
    <timestep time="61.00">
        <vehicle id="stopped" x="50.00" y="-1.65" angle="90.00" type="DEFAULT_VEHTYPE" speed="0.00" pos="50.00" lane="VODUGES_beg_0" slope="0.00"/>
    </timestep>
    <timestep time="62.00">
        <vehicle id="stopped" x="50.00" y="-1.65" angle="90.00" type="DEFAULT_VEHTYPE" speed="0.00" pos="50.00" lane="VODUGES_beg_0" slope="0.00"/>
    </timestep>
    <timestep time="63.00">
        <vehicle id="stopped" x="50.00" y="-1.65" angle="90.00" type="DEFAULT_VEHTYPE" speed="0.00" pos="50.00" lane="VODUGES_beg_0" slope="0.00"/>
    </timestep>
    <timestep time="64.00">
        <vehicle id="stopped" x="50.00" y="-1.65" angle="90.00" type="DEFAULT_VEHTYPE" speed="0.00" pos="50.00" lane="VODUGES_beg_0" slope="0.00"/>
    </timestep>
    <timestep time="65.00">
        <vehicle id="stopped" x="50.00" y="-1.65" angle="90.00" type="DEFAULT_VEHTYPE" speed="0.00" pos="50.00" lane="VODUGES_beg_0" slope="0.00"/>
    </timestep>
    <timestep time="66.00">
        <vehicle id="stopped" x="50.00" y="-1.65" angle="90.00" type="DEFAULT_VEHTYPE" speed="0.00" pos="50.00" lane="VODUGES_beg_0" slope="0.00"/>
    </timestep>
    <timestep time="67.00">
        <vehicle id="stopped" x="50.00" y="-1.65" angle="90.00" type="DEFAULT_VEHTYPE" speed="0.00" pos="50.00" lane="VODUGES_beg_0" slope="0.00"/>
    </timestep>
    <timestep time="68.00">
        <vehicle id="stopped" x="50.00" y="-1.65" angle="90.00" type="DEFAULT_VEHTYPE" speed="0.00" pos="50.00" lane="VODUGES_beg_0" slope="0.00"/>
    </timestep>
    <timestep time="69.00">
        <vehicle id="stopped" x="50.00" y="-1.65" angle="90.00" type="DEFAULT_VEHTYPE" speed="0.00" pos="50.00" lane="VODUGES_beg_0" slope="0.00"/>
    </timestep>
    <timestep time="70.00">
        <vehicle id="stopped" x="50.00" y="-1.65" angle="90.00" type="DEFAULT_VEHTYPE" speed="0.00" pos="50.00" lane="VODUGES_beg_0" slope="0.00"/>
    </timestep>
    <timestep time="71.00">
        <vehicle id="stopped" x="50.00" y="-1.65" angle="90.00" type="DEFAULT_VEHTYPE" speed="0.00" pos="50.00" lane="VODUGES_beg_0" slope="0.00"/>
    </timestep>
    <timestep time="72.00">
        <vehicle id="stopped" x="50.00" y="-1.65" angle="90.00" type="DEFAULT_VEHTYPE" speed="0.00" pos="50.00" lane="VODUGES_beg_0" slope="0.00"/>
    </timestep>
    <timestep time="73.00">
        <vehicle id="stopped" x="50.00" y="-1.65" angle="90.00" type="DEFAULT_VEHTYPE" speed="0.00" pos="50.00" lane="VODUGES_beg_0" slope="0.00"/>
    </timestep>
    <timestep time="74.00">
        <vehicle id="stopped" x="50.00" y="-1.65" angle="90.00" type="DEFAULT_VEHTYPE" speed="0.00" pos="50.00" lane="VODUGES_beg_0" slope="0.00"/>
    </timestep>
    <timestep time="75.00">
        <vehicle id="stopped" x="50.00" y="-1.65" angle="90.00" type="DEFAULT_VEHTYPE" speed="0.00" pos="50.00" lane="VODUGES_beg_0" slope="0.00"/>
    </timestep>
    <timestep time="76.00">
        <vehicle id="stopped" x="50.00" y="-1.65" angle="90.00" type="DEFAULT_VEHTYPE" speed="0.00" pos="50.00" lane="VODUGES_beg_0" slope="0.00"/>
    </timestep>
    <timestep time="77.00">
        <vehicle id="stopped" x="50.00" y="-1.65" angle="90.00" type="DEFAULT_VEHTYPE" speed="0.00" pos="50.00" lane="VODUGES_beg_0" slope="0.00"/>
    </timestep>
    <timestep time="78.00">
        <vehicle id="stopped" x="50.00" y="-1.65" angle="90.00" type="DEFAULT_VEHTYPE" speed="0.00" pos="50.00" lane="VODUGES_beg_0" slope="0.00"/>
    </timestep>
    <timestep time="79.00">
        <vehicle id="stopped" x="50.00" y="-1.65" angle="90.00" type="DEFAULT_VEHTYPE" speed="0.00" pos="50.00" lane="VODUGES_beg_0" slope="0.00"/>
    </timestep>
    <timestep time="80.00">
        <vehicle id="stopped" x="50.00" y="-1.65" angle="90.00" type="DEFAULT_VEHTYPE" speed="0.00" pos="50.00" lane="VODUGES_beg_0" slope="0.00"/>
    </timestep>
    <timestep time="81.00">
        <vehicle id="stopped" x="50.00" y="-1.65" angle="90.00" type="DEFAULT_VEHTYPE" speed="0.00" pos="50.00" lane="VODUGES_beg_0" slope="0.00"/>
    </timestep>
    <timestep time="82.00">
        <vehicle id="stopped" x="50.00" y="-1.65" angle="90.00" type="DEFAULT_VEHTYPE" speed="0.00" pos="50.00" lane="VODUGES_beg_0" slope="0.00"/>
    </timestep>
    <timestep time="83.00">
        <vehicle id="stopped" x="50.00" y="-1.65" angle="90.00" type="DEFAULT_VEHTYPE" speed="0.00" pos="50.00" lane="VODUGES_beg_0" slope="0.00"/>
    </timestep>
    <timestep time="84.00">
        <vehicle id="stopped" x="50.00" y="-1.65" angle="90.00" type="DEFAULT_VEHTYPE" speed="0.00" pos="50.00" lane="VODUGES_beg_0" slope="0.00"/>
    </timestep>
    <timestep time="85.00">
        <vehicle id="stopped" x="50.00" y="-1.65" angle="90.00" type="DEFAULT_VEHTYPE" speed="0.00" pos="50.00" lane="VODUGES_beg_0" slope="0.00"/>
    </timestep>
    <timestep time="86.00">
        <vehicle id="stopped" x="50.00" y="-1.65" angle="90.00" type="DEFAULT_VEHTYPE" speed="0.00" pos="50.00" lane="VODUGES_beg_0" slope="0.00"/>
    </timestep>
    <timestep time="87.00">
        <vehicle id="stopped" x="50.00" y="-1.65" angle="90.00" type="DEFAULT_VEHTYPE" speed="0.00" pos="50.00" lane="VODUGES_beg_0" slope="0.00"/>
    </timestep>
    <timestep time="88.00">
        <vehicle id="stopped" x="50.00" y="-1.65" angle="90.00" type="DEFAULT_VEHTYPE" speed="0.00" pos="50.00" lane="VODUGES_beg_0" slope="0.00"/>
    </timestep>
    <timestep time="89.00">
        <vehicle id="stopped" x="50.00" y="-1.65" angle="90.00" type="DEFAULT_VEHTYPE" speed="0.00" pos="50.00" lane="VODUGES_beg_0" slope="0.00"/>
    </timestep>
    <timestep time="90.00">
        <vehicle id="stopped" x="50.00" y="-1.65" angle="90.00" type="DEFAULT_VEHTYPE" speed="0.00" pos="50.00" lane="VODUGES_beg_0" slope="0.00"/>
    </timestep>
    <timestep time="91.00">
        <vehicle id="stopped" x="50.00" y="-1.65" angle="90.00" type="DEFAULT_VEHTYPE" speed="0.00" pos="50.00" lane="VODUGES_beg_0" slope="0.00"/>
    </timestep>
    <timestep time="92.00">
        <vehicle id="stopped" x="50.00" y="-1.65" angle="90.00" type="DEFAULT_VEHTYPE" speed="0.00" pos="50.00" lane="VODUGES_beg_0" slope="0.00"/>
    </timestep>
    <timestep time="93.00">
        <vehicle id="stopped" x="50.00" y="-1.65" angle="90.00" type="DEFAULT_VEHTYPE" speed="0.00" pos="50.00" lane="VODUGES_beg_0" slope="0.00"/>
    </timestep>
    <timestep time="94.00">
        <vehicle id="stopped" x="50.00" y="-1.65" angle="90.00" type="DEFAULT_VEHTYPE" speed="0.00" pos="50.00" lane="VODUGES_beg_0" slope="0.00"/>
    </timestep>
    <timestep time="95.00">
        <vehicle id="stopped" x="50.00" y="-1.65" angle="90.00" type="DEFAULT_VEHTYPE" speed="0.00" pos="50.00" lane="VODUGES_beg_0" slope="0.00"/>
    </timestep>
    <timestep time="96.00">
        <vehicle id="stopped" x="50.00" y="-1.65" angle="90.00" type="DEFAULT_VEHTYPE" speed="0.00" pos="50.00" lane="VODUGES_beg_0" slope="0.00"/>
    </timestep>
    <timestep time="97.00">
        <vehicle id="stopped" x="50.00" y="-1.65" angle="90.00" type="DEFAULT_VEHTYPE" speed="0.00" pos="50.00" lane="VODUGES_beg_0" slope="0.00"/>
    </timestep>
    <timestep time="98.00">
        <vehicle id="stopped" x="50.00" y="-1.65" angle="90.00" type="DEFAULT_VEHTYPE" speed="0.00" pos="50.00" lane="VODUGES_beg_0" slope="0.00"/>
    </timestep>
    <timestep time="99.00">
        <vehicle id="stopped" x="50.00" y="-1.65" angle="90.00" type="DEFAULT_VEHTYPE" speed="0.00" pos="50.00" lane="VODUGES_beg_0" slope="0.00"/>
    </timestep>
    <timestep time="100.00">
        <vehicle id="stopped" x="50.00" y="-1.65" angle="90.00" type="DEFAULT_VEHTYPE" speed="0.00" pos="50.00" lane="VODUGES_beg_0" slope="0.00"/>
    </timestep>
    <timestep time="101.00">
        <vehicle id="stopped" x="50.00" y="-1.65" angle="90.00" type="DEFAULT_VEHTYPE" speed="0.00" pos="50.00" lane="VODUGES_beg_0" slope="0.00"/>
    </timestep>
    <timestep time="102.00">
        <vehicle id="stopped" x="50.00" y="-1.65" angle="90.00" type="DEFAULT_VEHTYPE" speed="0.00" pos="50.00" lane="VODUGES_beg_0" slope="0.00"/>
    </timestep>
    <timestep time="103.00">
        <vehicle id="stopped" x="50.00" y="-1.65" angle="90.00" type="DEFAULT_VEHTYPE" speed="0.00" pos="50.00" lane="VODUGES_beg_0" slope="0.00"/>
    </timestep>
    <timestep time="104.00">
        <vehicle id="stopped" x="50.00" y="-1.65" angle="90.00" type="DEFAULT_VEHTYPE" speed="0.00" pos="50.00" lane="VODUGES_beg_0" slope="0.00"/>
    </timestep>
    <timestep time="105.00">
        <vehicle id="stopped" x="50.00" y="-1.65" angle="90.00" type="DEFAULT_VEHTYPE" speed="0.00" pos="50.00" lane="VODUGES_beg_0" slope="0.00"/>
    </timestep>
    <timestep time="106.00">
        <vehicle id="stopped" x="50.00" y="-1.65" angle="90.00" type="DEFAULT_VEHTYPE" speed="0.00" pos="50.00" lane="VODUGES_beg_0" slope="0.00"/>
    </timestep>
    <timestep time="107.00">
        <vehicle id="stopped" x="50.92" y="-1.65" angle="90.00" type="DEFAULT_VEHTYPE" speed="1.85" pos="50.92" lane="VODUGES_beg_0" slope="0.00"/>
    </timestep>
    <timestep time="108.00">
        <vehicle id="stopped" x="53.96" y="-1.65" angle="90.00" type="DEFAULT_VEHTYPE" speed="4.23" pos="53.96" lane="VODUGES_beg_0" slope="0.00"/>
    </timestep>
    <timestep time="109.00">