<?xml version="1.0" encoding="UTF-8"?>

<!-- generated on Tue Sep 13 12:07:55 2016 by SUMO Version dev-SVN-r21424
<?xml version="1.0" encoding="UTF-8"?>

<configuration xmlns:xsi="http://www.w3.org/2001/XMLSchema-instance" xsi:noNamespaceSchemaLocation="http://sumo.dlr.de/xsd/sumoConfiguration.xsd">

    <input>
        <net-file value="motorway.net.xml"/>
        <route-files value="input_routes.rou.xml"/>
        <additional-files value="input_additional.add.xml,input_additional2.add.xml"/>
    </input>

    <processing>
        <step-method.ballistic value="true"/>
        <time-to-teleport value="0"/>
        <max-depart-delay value="1"/>
    </processing>

    <report>
        <xml-validation value="never"/>
        <duration-log.disable value="true"/>
        <no-step-log value="true"/>
    </report>

</configuration>
-->

<detector xmlns:xsi="http://www.w3.org/2001/XMLSchema-instance" xsi:noNamespaceSchemaLocation="http://sumo.dlr.de/xsd/det_e1_file.xsd">
   <interval begin="0.00" end="12.00" id="end3_0" nVehContrib="0" flow="0.00" occupancy="0.00" speed="-1.00" length="-1.00" nVehEntered="0"/>
   <interval begin="12.00" end="24.00" id="end3_0" nVehContrib="0" flow="0.00" occupancy="0.00" speed="-1.00" length="-1.00" nVehEntered="0"/>
   <interval begin="24.00" end="36.00" id="end3_0" nVehContrib="0" flow="0.00" occupancy="0.00" speed="-1.00" length="-1.00" nVehEntered="0"/>
   <interval begin="36.00" end="48.00" id="end3_0" nVehContrib="0" flow="0.00" occupancy="0.00" speed="-1.00" length="-1.00" nVehEntered="0"/>
   <interval begin="48.00" end="60.00" id="end3_0" nVehContrib="0" flow="0.00" occupancy="0.00" speed="-1.00" length="-1.00" nVehEntered="0"/>
   <interval begin="60.00" end="72.00" id="end3_0" nVehContrib="0" flow="0.00" occupancy="0.00" speed="-1.00" length="-1.00" nVehEntered="0"/>
   <interval begin="72.00" end="84.00" id="end3_0" nVehContrib="0" flow="0.00" occupancy="0.00" speed="-1.00" length="-1.00" nVehEntered="0"/>
   <interval begin="84.00" end="96.00" id="end3_0" nVehContrib="0" flow="0.00" occupancy="0.00" speed="-1.00" length="-1.00" nVehEntered="0"/>
   <interval begin="96.00" end="108.00" id="end3_0" nVehContrib="0" flow="0.00" occupancy="0.00" speed="-1.00" length="-1.00" nVehEntered="0"/>
   <interval begin="108.00" end="120.00" id="end3_0" nVehContrib="0" flow="0.00" occupancy="0.00" speed="-1.00" length="-1.00" nVehEntered="0"/>
   <interval begin="120.00" end="132.00" id="end3_0" nVehContrib="0" flow="0.00" occupancy="0.00" speed="-1.00" length="-1.00" nVehEntered="0"/>
   <interval begin="132.00" end="144.00" id="end3_0" nVehContrib="0" flow="0.00" occupancy="0.00" speed="-1.00" length="-1.00" nVehEntered="0"/>
   <interval begin="144.00" end="156.00" id="end3_0" nVehContrib="0" flow="0.00" occupancy="0.00" speed="-1.00" length="-1.00" nVehEntered="0"/>
   <interval begin="156.00" end="168.00" id="end3_0" nVehContrib="0" flow="0.00" occupancy="0.00" speed="-1.00" length="-1.00" nVehEntered="0"/>
   <interval begin="168.00" end="180.00" id="end3_0" nVehContrib="0" flow="0.00" occupancy="0.00" speed="-1.00" length="-1.00" nVehEntered="0"/>
   <interval begin="180.00" end="192.00" id="end3_0" nVehContrib="0" flow="0.00" occupancy="0.00" speed="-1.00" length="-1.00" nVehEntered="0"/>
   <interval begin="192.00" end="204.00" id="end3_0" nVehContrib="0" flow="0.00" occupancy="0.00" speed="-1.00" length="-1.00" nVehEntered="0"/>
   <interval begin="204.00" end="216.00" id="end3_0" nVehContrib="0" flow="0.00" occupancy="0.00" speed="-1.00" length="-1.00" nVehEntered="0"/>
   <interval begin="216.00" end="228.00" id="end3_0" nVehContrib="0" flow="0.00" occupancy="0.00" speed="-1.00" length="-1.00" nVehEntered="0"/>
   <interval begin="228.00" end="240.00" id="end3_0" nVehContrib="0" flow="0.00" occupancy="0.00" speed="-1.00" length="-1.00" nVehEntered="0"/>
   <interval begin="240.00" end="252.00" id="end3_0" nVehContrib="0" flow="0.00" occupancy="0.00" speed="-1.00" length="-1.00" nVehEntered="0"/>
   <interval begin="252.00" end="264.00" id="end3_0" nVehContrib="0" flow="0.00" occupancy="0.00" speed="-1.00" length="-1.00" nVehEntered="0"/>
   <interval begin="264.00" end="276.00" id="end3_0" nVehContrib="0" flow="0.00" occupancy="0.00" speed="-1.00" length="-1.00" nVehEntered="0"/>
   <interval begin="276.00" end="288.00" id="end3_0" nVehContrib="0" flow="0.00" occupancy="0.00" speed="-1.00" length="-1.00" nVehEntered="0"/>
   <interval begin="288.00" end="300.00" id="end3_0" nVehContrib="0" flow="0.00" occupancy="0.00" speed="-1.00" length="-1.00" nVehEntered="0"/>
   <interval begin="300.00" end="312.00" id="end3_0" nVehContrib="0" flow="0.00" occupancy="0.00" speed="-1.00" length="-1.00" nVehEntered="0"/>
   <interval begin="312.00" end="324.00" id="end3_0" nVehContrib="0" flow="0.00" occupancy="0.00" speed="-1.00" length="-1.00" nVehEntered="0"/>
   <interval begin="324.00" end="336.00" id="end3_0" nVehContrib="0" flow="0.00" occupancy="0.00" speed="-1.00" length="-1.00" nVehEntered="0"/>
   <interval begin="336.00" end="348.00" id="end3_0" nVehContrib="0" flow="0.00" occupancy="0.00" speed="-1.00" length="-1.00" nVehEntered="0"/>
   <interval begin="348.00" end="360.00" id="end3_0" nVehContrib="0" flow="0.00" occupancy="0.00" speed="-1.00" length="-1.00" nVehEntered="0"/>
   <interval begin="360.00" end="372.00" id="end3_0" nVehContrib="0" flow="0.00" occupancy="0.00" speed="-1.00" length="-1.00" nVehEntered="0"/>
   <interval begin="372.00" end="384.00" id="end3_0" nVehContrib="0" flow="0.00" occupancy="0.00" speed="-1.00" length="-1.00" nVehEntered="0"/>
   <interval begin="384.00" end="396.00" id="end3_0" nVehContrib="0" flow="0.00" occupancy="0.00" speed="-1.00" length="-1.00" nVehEntered="0"/>
   <interval begin="396.00" end="408.00" id="end3_0" nVehContrib="0" flow="0.00" occupancy="0.00" speed="-1.00" length="-1.00" nVehEntered="0"/>
   <interval begin="408.00" end="420.00" id="end3_0" nVehContrib="0" flow="0.00" occupancy="0.00" speed="-1.00" length="-1.00" nVehEntered="0"/>
   <interval begin="420.00" end="432.00" id="end3_0" nVehContrib="0" flow="0.00" occupancy="0.00" speed="-1.00" length="-1.00" nVehEntered="0"/>
   <interval begin="432.00" end="444.00" id="end3_0" nVehContrib="0" flow="0.00" occupancy="0.00" speed="-1.00" length="-1.00" nVehEntered="0"/>
   <interval begin="444.00" end="456.00" id="end3_0" nVehContrib="0" flow="0.00" occupancy="0.00" speed="-1.00" length="-1.00" nVehEntered="0"/>
   <interval begin="456.00" end="468.00" id="end3_0" nVehContrib="0" flow="0.00" occupancy="0.00" speed="-1.00" length="-1.00" nVehEntered="0"/>
   <interval begin="468.00" end="480.00" id="end3_0" nVehContrib="0" flow="0.00" occupancy="0.00" speed="-1.00" length="-1.00" nVehEntered="0"/>
   <interval begin="480.00" end="492.00" id="end3_0" nVehContrib="0" flow="0.00" occupancy="0.00" speed="-1.00" length="-1.00" nVehEntered="0"/>
   <interval begin="492.00" end="504.00" id="end3_0" nVehContrib="0" flow="0.00" occupancy="0.00" speed="-1.00" length="-1.00" nVehEntered="0"/>
   <interval begin="504.00" end="516.00" id="end3_0" nVehContrib="0" flow="0.00" occupancy="0.00" speed="-1.00" length="-1.00" nVehEntered="0"/>
   <interval begin="516.00" end="528.00" id="end3_0" nVehContrib="0" flow="0.00" occupancy="0.00" speed="-1.00" length="-1.00" nVehEntered="0"/>
   <interval begin="528.00" end="540.00" id="end3_0" nVehContrib="0" flow="0.00" occupancy="0.00" speed="-1.00" length="-1.00" nVehEntered="0"/>
   <interval begin="540.00" end="552.00" id="end3_0" nVehContrib="0" flow="0.00" occupancy="0.00" speed="-1.00" length="-1.00" nVehEntered="0"/>
   <interval begin="552.00" end="564.00" id="end3_0" nVehContrib="0" flow="0.00" occupancy="0.00" speed="-1.00" length="-1.00" nVehEntered="0"/>
   <interval begin="564.00" end="576.00" id="end3_0" nVehContrib="0" flow="0.00" occupancy="0.00" speed="-1.00" length="-1.00" nVehEntered="0"/>
   <interval begin="576.00" end="588.00" id="end3_0" nVehContrib="0" flow="0.00" occupancy="0.00" speed="-1.00" length="-1.00" nVehEntered="0"/>
   <interval begin="588.00" end="600.00" id="end3_0" nVehContrib="0" flow="0.00" occupancy="0.00" speed="-1.00" length="-1.00" nVehEntered="0"/>
   <interval begin="600.00" end="612.00" id="end3_0" nVehContrib="0" flow="0.00" occupancy="0.00" speed="-1.00" length="-1.00" nVehEntered="0"/>
   <interval begin="612.00" end="624.00" id="end3_0" nVehContrib="0" flow="0.00" occupancy="0.00" speed="-1.00" length="-1.00" nVehEntered="0"/>
   <interval begin="624.00" end="636.00" id="end3_0" nVehContrib="0" flow="0.00" occupancy="0.00" speed="-1.00" length="-1.00" nVehEntered="0"/>
   <interval begin="636.00" end="648.00" id="end3_0" nVehContrib="0" flow="0.00" occupancy="0.00" speed="-1.00" length="-1.00" nVehEntered="0"/>
   <interval begin="648.00" end="660.00" id="end3_0" nVehContrib="0" flow="0.00" occupancy="0.00" speed="-1.00" length="-1.00" nVehEntered="0"/>
   <interval begin="660.00" end="672.00" id="end3_0" nVehContrib="0" flow="0.00" occupancy="0.00" speed="-1.00" length="-1.00" nVehEntered="0"/>
   <interval begin="672.00" end="684.00" id="end3_0" nVehContrib="0" flow="0.00" occupancy="0.00" speed="-1.00" length="-1.00" nVehEntered="0"/>
   <interval begin="684.00" end="696.00" id="end3_0" nVehContrib="0" flow="0.00" occupancy="0.00" speed="-1.00" length="-1.00" nVehEntered="0"/>
   <interval begin="696.00" end="708.00" id="end3_0" nVehContrib="0" flow="0.00" occupancy="0.00" speed="-1.00" length="-1.00" nVehEntered="0"/>
   <interval begin="708.00" end="720.00" id="end3_0" nVehContrib="0" flow="0.00" occupancy="0.00" speed="-1.00" length="-1.00" nVehEntered="0"/>
   <interval begin="720.00" end="732.00" id="end3_0" nVehContrib="0" flow="0.00" occupancy="0.00" speed="-1.00" length="-1.00" nVehEntered="0"/>
   <interval begin="732.00" end="744.00" id="end3_0" nVehContrib="0" flow="0.00" occupancy="0.00" speed="-1.00" length="-1.00" nVehEntered="0"/>
   <interval begin="744.00" end="756.00" id="end3_0" nVehContrib="0" flow="0.00" occupancy="0.00" speed="-1.00" length="-1.00" nVehEntered="0"/>
   <interval begin="756.00" end="768.00" id="end3_0" nVehContrib="0" flow="0.00" occupancy="0.00" speed="-1.00" length="-1.00" nVehEntered="0"/>
   <interval begin="768.00" end="780.00" id="end3_0" nVehContrib="0" flow="0.00" occupancy="0.00" speed="-1.00" length="-1.00" nVehEntered="0"/>
   <interval begin="780.00" end="792.00" id="end3_0" nVehContrib="0" flow="0.00" occupancy="0.00" speed="-1.00" length="-1.00" nVehEntered="0"/>
   <interval begin="792.00" end="804.00" id="end3_0" nVehContrib="0" flow="0.00" occupancy="0.00" speed="-1.00" length="-1.00" nVehEntered="0"/>
   <interval begin="804.00" end="816.00" id="end3_0" nVehContrib="0" flow="0.00" occupancy="0.00" speed="-1.00" length="-1.00" nVehEntered="0"/>
   <interval begin="816.00" end="828.00" id="end3_0" nVehContrib="0" flow="0.00" occupancy="0.00" speed="-1.00" length="-1.00" nVehEntered="0"/>
   <interval begin="828.00" end="840.00" id="end3_0" nVehContrib="0" flow="0.00" occupancy="0.00" speed="-1.00" length="-1.00" nVehEntered="0"/>
   <interval begin="840.00" end="852.00" id="end3_0" nVehContrib="4" flow="1200.00" occupancy="31.93" speed="6.45" length="5.00" nVehEntered="4"/>
   <interval begin="852.00" end="864.00" id="end3_0" nVehContrib="7" flow="2100.00" occupancy="20.43" speed="12.55" length="5.00" nVehEntered="7"/>
   <interval begin="864.00" end="876.00" id="end3_0" nVehContrib="8" flow="2400.00" occupancy="18.05" speed="18.80" length="5.00" nVehEntered="8"/>
   <interval begin="876.00" end="888.00" id="end3_0" nVehContrib="7" flow="2100.00" occupancy="12.09" speed="24.40" length="5.00" nVehEntered="7"/>
   <interval begin="888.00" end="900.00" id="end3_0" nVehContrib="8" flow="2400.00" occupancy="11.73" speed="28.61" length="5.00" nVehEntered="8"/>
   <interval begin="900.00" end="912.00" id="end3_0" nVehContrib="8" flow="2400.00" occupancy="10.34" speed="32.32" length="5.00" nVehEntered="8"/>
   <interval begin="912.00" end="924.00" id="end3_0" nVehContrib="8" flow="2400.00" occupancy="10.63" speed="31.53" length="5.00" nVehEntered="8"/>
   <interval begin="924.00" end="936.00" id="end3_0" nVehContrib="8" flow="2400.00" occupancy="10.77" speed="31.01" length="5.00" nVehEntered="8"/>
   <interval begin="936.00" end="948.00" id="end3_0" nVehContrib="8" flow="2400.00" occupancy="10.72" speed="31.11" length="5.00" nVehEntered="8"/>
   <interval begin="948.00" end="960.00" id="end3_0" nVehContrib="9" flow="2700.00" occupancy="11.89" speed="31.59" length="5.00" nVehEntered="9"/>
   <interval begin="960.00" end="972.00" id="end3_0" nVehContrib="8" flow="2400.00" occupancy="10.78" speed="30.95" length="5.00" nVehEntered="8"/>
   <interval begin="972.00" end="984.00" id="end3_0" nVehContrib="9" flow="2700.00" occupancy="12.46" speed="30.15" length="5.00" nVehEntered="9"/>
   <interval begin="984.00" end="996.00" id="end3_0" nVehContrib="8" flow="2400.00" occupancy="10.93" speed="30.50" length="5.00" nVehEntered="8"/>
   <interval begin="996.00" end="1008.00" id="end3_0" nVehContrib="7" flow="2100.00" occupancy="9.50" speed="30.77" length="5.00" nVehEntered="7"/>
   <interval begin="1008.00" end="1020.00" id="end3_0" nVehContrib="8" flow="2400.00" occupancy="11.43" speed="29.20" length="5.00" nVehEntered="8"/>
   <interval begin="1020.00" end="1032.00" id="end3_0" nVehContrib="8" flow="2400.00" occupancy="11.29" speed="29.55" length="5.00" nVehEntered="8"/>
   <interval begin="1032.00" end="1044.00" id="end3_0" nVehContrib="9" flow="2700.00" occupancy="12.93" speed="29.05" length="5.00" nVehEntered="9"/>
   <interval begin="1044.00" end="1056.00" id="end3_0" nVehContrib="8" flow="2400.00" occupancy="10.94" speed="30.77" length="5.00" nVehEntered="8"/>
   <interval begin="1056.00" end="1068.00" id="end3_0" nVehContrib="9" flow="2700.00" occupancy="12.47" speed="30.09" length="5.00" nVehEntered="9"/>
   <interval begin="1068.00" end="1080.00" id="end3_0" nVehContrib="7" flow="2100.00" occupancy="9.67" speed="30.26" length="5.00" nVehEntered="7"/>
   <interval begin="1080.00" end="1092.00" id="end3_0" nVehContrib="8" flow="2400.00" occupancy="10.92" speed="30.59" length="5.00" nVehEntered="8"/>
   <interval begin="1092.00" end="1104.00" id="end3_0" nVehContrib="8" flow="2400.00" occupancy="11.27" speed="29.75" length="5.00" nVehEntered="8"/>
   <interval begin="1104.00" end="1116.00" id="end3_0" nVehContrib="9" flow="2700.00" occupancy="12.58" speed="29.92" length="5.00" nVehEntered="9"/>
   <interval begin="1116.00" end="1128.00" id="end3_0" nVehContrib="3" flow="900.00" occupancy="4.54" speed="27.81" length="5.00" nVehEntered="3"/>
   <interval begin="1128.00" end="1140.00" id="end3_0" nVehContrib="8" flow="2400.00" occupancy="12.97" speed="26.30" length="5.00" nVehEntered="8"/>
   <interval begin="1140.00" end="1152.00" id="end3_0" nVehContrib="9" flow="2700.00" occupancy="14.36" speed="26.10" length="5.00" nVehEntered="9"/>
   <interval begin="1152.00" end="1164.00" id="end3_0" nVehContrib="8" flow="2400.00" occupancy="12.36" speed="27.16" length="5.00" nVehEntered="8"/>
   <interval begin="1164.00" end="1176.00" id="end3_0" nVehContrib="8" flow="2400.00" occupancy="11.08" speed="30.17" length="5.00" nVehEntered="8"/>
   <interval begin="1176.00" end="1188.00" id="end3_0" nVehContrib="9" flow="2700.00" occupancy="12.71" speed="29.69" length="5.00" nVehEntered="9"/>
   <interval begin="1188.00" end="1200.00" id="end3_0" nVehContrib="8" flow="2400.00" occupancy="11.08" speed="30.13" length="5.00" nVehEntered="8"/>
   <interval begin="1200.00" end="1212.00" id="end3_0" nVehContrib="9" flow="2700.00" occupancy="12.48" speed="30.07" length="5.00" nVehEntered="9"/>
   <interval begin="1212.00" end="1224.00" id="end3_0" nVehContrib="8" flow="2400.00" occupancy="11.01" speed="30.29" length="5.00" nVehEntered="8"/>
   <interval begin="1224.00" end="1236.00" id="end3_0" nVehContrib="9" flow="2700.00" occupancy="12.91" speed="29.31" length="5.00" nVehEntered="9"/>
   <interval begin="1236.00" end="1248.00" id="end3_0" nVehContrib="5" flow="1500.00" occupancy="7.48" speed="28.02" length="5.00" nVehEntered="5"/>
   <interval begin="1248.00" end="1260.00" id="end3_0" nVehContrib="9" flow="2700.00" occupancy="14.56" speed="25.80" length="5.00" nVehEntered="9"/>
   <interval begin="1260.00" end="1272.00" id="end3_0" nVehContrib="8" flow="2400.00" occupancy="12.72" speed="26.32" length="5.00" nVehEntered="8"/>
   <interval begin="1272.00" end="1284.00" id="end3_0" nVehContrib="8" flow="2400.00" occupancy="11.18" speed="29.87" length="5.00" nVehEntered="8"/>
   <interval begin="1284.00" end="1296.00" id="end3_0" nVehContrib="9" flow="2700.00" occupancy="12.64" speed="29.70" length="5.00" nVehEntered="9"/>
   <interval begin="1296.00" end="1308.00" id="end3_0" nVehContrib="9" flow="2700.00" occupancy="11.69" speed="32.17" length="5.00" nVehEntered="9"/>
   <interval begin="1308.00" end="1320.00" id="end3_0" nVehContrib="8" flow="2400.00" occupancy="10.48" speed="31.85" length="5.00" nVehEntered="8"/>
   <interval begin="1320.00" end="1332.00" id="end3_0" nVehContrib="8" flow="2400.00" occupancy="11.21" speed="29.75" length="5.00" nVehEntered="8"/>
   <interval begin="1332.00" end="1344.00" id="end3_0" nVehContrib="9" flow="2700.00" occupancy="12.66" speed="29.71" length="5.00" nVehEntered="9"/>
   <interval begin="1344.00" end="1356.00" id="end3_0" nVehContrib="8" flow="2400.00" occupancy="10.57" speed="31.63" length="5.00" nVehEntered="8"/>
   <interval begin="1356.00" end="1368.00" id="end3_0" nVehContrib="3" flow="900.00" occupancy="4.63" speed="26.98" length="5.00" nVehEntered="3"/>
   <interval begin="1368.00" end="1380.00" id="end3_0" nVehContrib="8" flow="2400.00" occupancy="13.66" speed="25.40" length="5.00" nVehEntered="8"/>
   <interval begin="1380.00" end="1392.00" id="end3_0" nVehContrib="8" flow="2400.00" occupancy="12.29" speed="26.13" length="5.00" nVehEntered="8"/>
   <interval begin="1392.00" end="1404.00" id="end3_0" nVehContrib="8" flow="2400.00" occupancy="13.91" speed="26.44" length="5.00" nVehEntered="8"/>
   <interval begin="1404.00" end="1416.00" id="end3_0" nVehContrib="9" flow="2700.00" occupancy="12.44" speed="27.35" length="5.00" nVehEntered="9"/>
   <interval begin="1416.00" end="1428.00" id="end3_0" nVehContrib="8" flow="2400.00" occupancy="11.35" speed="30.54" length="5.00" nVehEntered="8"/>
   <interval begin="1428.00" end="1440.00" id="end3_0" nVehContrib="9" flow="2700.00" occupancy="12.40" speed="29.35" length="5.00" nVehEntered="9"/>
   <interval begin="1440.00" end="1452.00" id="end3_0" nVehContrib="6" flow="1800.00" occupancy="8.08" speed="30.97" length="5.00" nVehEntered="6"/>
   <interval begin="1452.00" end="1454.00" id="end3_0" nVehContrib="0" flow="0.00" occupancy="0.00" speed="-1.00" length="-1.00" nVehEntered="0"/>
</detector>
