<?xml version="1.0" encoding="UTF-8"?>

<!-- generated on Mon Sep 12 13:12:31 2016 by SUMO Version dev-SVN-r21424
<?xml version="1.0" encoding="UTF-8"?>

<configuration xmlns:xsi="http://www.w3.org/2001/XMLSchema-instance" xsi:noNamespaceSchemaLocation="http://sumo.dlr.de/xsd/sumoConfiguration.xsd">

    <input>
        <net-file value="net.net.xml"/>
        <route-files value="input_routes.rou.xml"/>
    </input>

    <output>
        <fcd-output value="fcd.xml"/>
        <tripinfo-output value="tripinfos.xml"/>
    </output>

    <time>
        <step-length value="0.2"/>
    </time>

    <processing>
        <step-method.ballistic value="true"/>
    </processing>

    <report>
        <xml-validation value="never"/>
        <no-step-log value="true"/>
    </report>

</configuration>
-->

<fcd-export xmlns:xsi="http://www.w3.org/2001/XMLSchema-instance" xsi:noNamespaceSchemaLocation="http://sumo.dlr.de/xsd/fcd_file.xsd">
    <timestep time="0.00">
        <vehicle id="oncoming1" x="100.00" y="1.65" angle="270.00" type="DEFAULT_VEHTYPE" speed="0.00" pos="100.00" lane="-VODUGES_beg_0" slope="0.00"/>
        <vehicle id="oncoming2" x="200.00" y="1.65" angle="270.00" type="DEFAULT_VEHTYPE" speed="0.00" pos="0.00" lane="-VODUGES_beg_0" slope="0.00"/>
        <vehicle id="overtaking" x="0.00" y="-1.65" angle="90.00" type="DEFAULT_VEHTYPE" speed="0.00" pos="0.00" lane="VODUGES_beg_0" slope="0.00"/>
        <vehicle id="stopped" x="40.00" y="-1.65" angle="90.00" type="DEFAULT_VEHTYPE" speed="0.00" pos="40.00" lane="VODUGES_beg_0" slope="0.00"/>
    </timestep>
    <timestep time="0.20">
        <vehicle id="oncoming1" x="99.95" y="1.65" angle="270.00" type="DEFAULT_VEHTYPE" speed="0.52" pos="100.05" lane="-VODUGES_beg_0" slope="0.00"/>
        <vehicle id="oncoming2" x="199.95" y="1.65" angle="270.00" type="DEFAULT_VEHTYPE" speed="0.49" pos="0.05" lane="-VODUGES_beg_0" slope="0.00"/>
        <vehicle id="overtaking" x="0.05" y="-1.65" angle="90.00" type="DEFAULT_VEHTYPE" speed="0.48" pos="0.05" lane="VODUGES_beg_0" slope="0.00"/>
        <vehicle id="stopped" x="40.05" y="-1.65" angle="90.00" type="DEFAULT_VEHTYPE" speed="0.47" pos="40.05" lane="VODUGES_beg_0" slope="0.00"/>
    </timestep>
    <timestep time="0.40">
        <vehicle id="oncoming1" x="99.80" y="1.65" angle="270.00" type="DEFAULT_VEHTYPE" speed="0.96" pos="100.20" lane="-VODUGES_beg_0" slope="0.00"/>
        <vehicle id="oncoming2" x="199.80" y="1.65" angle="270.00" type="DEFAULT_VEHTYPE" speed="0.99" pos="0.20" lane="-VODUGES_beg_0" slope="0.00"/>
        <vehicle id="overtaking" x="0.20" y="-1.65" angle="90.00" type="DEFAULT_VEHTYPE" speed="1.00" pos="0.20" lane="VODUGES_beg_0" slope="0.00"/>
        <vehicle id="stopped" x="40.19" y="-1.65" angle="90.00" type="DEFAULT_VEHTYPE" speed="0.94" pos="40.19" lane="VODUGES_beg_0" slope="0.00"/>
    </timestep>
    <timestep time="0.60">
        <vehicle id="oncoming1" x="99.56" y="1.65" angle="270.00" type="DEFAULT_VEHTYPE" speed="1.48" pos="100.44" lane="-VODUGES_beg_0" slope="0.00"/>
        <vehicle id="oncoming2" x="199.56" y="1.65" angle="270.00" type="DEFAULT_VEHTYPE" speed="1.41" pos="0.44" lane="-VODUGES_beg_0" slope="0.00"/>
        <vehicle id="overtaking" x="0.44" y="-1.65" angle="90.00" type="DEFAULT_VEHTYPE" speed="1.41" pos="0.44" lane="VODUGES_beg_0" slope="0.00"/>
        <vehicle id="stopped" x="40.42" y="-1.65" angle="90.00" type="DEFAULT_VEHTYPE" speed="1.38" pos="40.42" lane="VODUGES_beg_0" slope="0.00"/>
    </timestep>
    <timestep time="0.80">
        <vehicle id="oncoming1" x="99.22" y="1.65" angle="270.00" type="DEFAULT_VEHTYPE" speed="1.89" pos="100.78" lane="-VODUGES_beg_0" slope="0.00"/>
        <vehicle id="oncoming2" x="199.23" y="1.65" angle="270.00" type="DEFAULT_VEHTYPE" speed="1.88" pos="0.77" lane="-VODUGES_beg_0" slope="0.00"/>
        <vehicle id="overtaking" x="0.76" y="-1.65" angle="90.00" type="DEFAULT_VEHTYPE" speed="1.84" pos="0.76" lane="VODUGES_beg_0" slope="0.00"/>
        <vehicle id="stopped" x="40.74" y="-1.65" angle="90.00" type="DEFAULT_VEHTYPE" speed="1.81" pos="40.74" lane="VODUGES_beg_0" slope="0.00"/>
    </timestep>
    <timestep time="1.00">
        <vehicle id="oncoming1" x="98.80" y="1.65" angle="270.00" type="DEFAULT_VEHTYPE" speed="2.33" pos="101.20" lane="-VODUGES_beg_0" slope="0.00"/>
        <vehicle id="oncoming2" x="198.82" y="1.65" angle="270.00" type="DEFAULT_VEHTYPE" speed="2.23" pos="1.18" lane="-VODUGES_beg_0" slope="0.00"/>
        <vehicle id="overtaking" x="1.16" y="-1.65" angle="90.00" type="DEFAULT_VEHTYPE" speed="2.15" pos="1.16" lane="VODUGES_beg_0" slope="0.00"/>
        <vehicle id="stopped" x="41.15" y="-1.65" angle="90.00" type="DEFAULT_VEHTYPE" speed="2.31" pos="41.15" lane="VODUGES_beg_0" slope="0.00"/>
    </timestep>
    <timestep time="1.20">
        <vehicle id="oncoming1" x="98.29" y="1.65" angle="270.00" type="DEFAULT_VEHTYPE" speed="2.77" pos="101.71" lane="-VODUGES_beg_0" slope="0.00"/>
        <vehicle id="oncoming2" x="198.34" y="1.65" angle="270.00" type="DEFAULT_VEHTYPE" speed="2.59" pos="1.66" lane="-VODUGES_beg_0" slope="0.00"/>
        <vehicle id="overtaking" x="1.63" y="-1.65" angle="90.00" type="DEFAULT_VEHTYPE" speed="2.54" pos="1.63" lane="VODUGES_beg_0" slope="0.00"/>
        <vehicle id="stopped" x="41.66" y="-1.65" angle="90.00" type="DEFAULT_VEHTYPE" speed="2.82" pos="41.66" lane="VODUGES_beg_0" slope="0.00"/>
    </timestep>
    <timestep time="1.40">
        <vehicle id="oncoming1" x="97.71" y="1.65" angle="270.00" type="DEFAULT_VEHTYPE" speed="3.06" pos="102.29" lane="-VODUGES_beg_0" slope="0.00"/>
        <vehicle id="oncoming2" x="197.78" y="1.65" angle="270.00" type="DEFAULT_VEHTYPE" speed="3.01" pos="2.22" lane="-VODUGES_beg_0" slope="0.00"/>
        <vehicle id="overtaking" x="2.17" y="-1.65" angle="90.00" type="DEFAULT_VEHTYPE" speed="2.84" pos="2.17" lane="VODUGES_beg_0" slope="0.00"/>
        <vehicle id="stopped" x="42.25" y="-1.65" angle="90.00" type="DEFAULT_VEHTYPE" speed="3.10" pos="42.25" lane="VODUGES_beg_0" slope="0.00"/>
    </timestep>
    <timestep time="1.60">
        <vehicle id="oncoming1" x="97.04" y="1.65" angle="270.00" type="DEFAULT_VEHTYPE" speed="3.57" pos="102.96" lane="-VODUGES_beg_0" slope="0.00"/>
        <vehicle id="oncoming2" x="197.14" y="1.65" angle="270.00" type="DEFAULT_VEHTYPE" speed="3.45" pos="2.86" lane="-VODUGES_beg_0" slope="0.00"/>
        <vehicle id="overtaking" x="2.78" y="-1.65" angle="90.00" type="DEFAULT_VEHTYPE" speed="3.30" pos="2.78" lane="VODUGES_beg_0" slope="0.00"/>
        <vehicle id="stopped" x="42.91" y="-1.65" angle="90.00" type="DEFAULT_VEHTYPE" speed="3.48" pos="42.91" lane="VODUGES_beg_0" slope="0.00"/>
    </timestep>
    <timestep time="1.80">
        <vehicle id="oncoming1" x="96.30" y="1.65" angle="270.00" type="DEFAULT_VEHTYPE" speed="3.84" pos="103.70" lane="-VODUGES_beg_0" slope="0.00"/>
        <vehicle id="oncoming2" x="196.40" y="1.65" angle="270.00" type="DEFAULT_VEHTYPE" speed="3.96" pos="3.60" lane="-VODUGES_beg_0" slope="0.00"/>
        <vehicle id="overtaking" x="3.49" y="-1.65" angle="90.00" type="DEFAULT_VEHTYPE" speed="3.78" pos="3.49" lane="VODUGES_beg_0" slope="0.00"/>
        <vehicle id="stopped" x="43.64" y="-1.65" angle="90.00" type="DEFAULT_VEHTYPE" speed="3.80" pos="43.64" lane="VODUGES_beg_0" slope="0.00"/>
    </timestep>
    <timestep time="2.00">
        <vehicle id="oncoming1" x="95.48" y="1.65" angle="270.00" type="DEFAULT_VEHTYPE" speed="4.33" pos="104.52" lane="-VODUGES_beg_0" slope="0.00"/>
        <vehicle id="oncoming2" x="195.56" y="1.65" angle="270.00" type="DEFAULT_VEHTYPE" speed="4.45" pos="4.44" lane="-VODUGES_beg_0" slope="0.00"/>
        <vehicle id="overtaking" x="4.29" y="-1.65" angle="90.00" type="DEFAULT_VEHTYPE" speed="4.22" pos="4.29" lane="VODUGES_beg_0" slope="0.00"/>
        <vehicle id="stopped" x="44.43" y="-1.65" angle="90.00" type="DEFAULT_VEHTYPE" speed="4.14" pos="44.43" lane="VODUGES_beg_0" slope="0.00"/>
    </timestep>
    <timestep time="2.20">
        <vehicle id="oncoming1" x="94.57" y="1.65" angle="270.00" type="DEFAULT_VEHTYPE" speed="4.78" pos="105.43" lane="-VODUGES_beg_0" slope="0.00"/>
        <vehicle id="oncoming2" x="194.62" y="1.65" angle="270.00" type="DEFAULT_VEHTYPE" speed="4.91" pos="5.38" lane="-VODUGES_beg_0" slope="0.00"/>
        <vehicle id="overtaking" x="5.16" y="-1.65" angle="90.00" type="DEFAULT_VEHTYPE" speed="4.48" pos="5.16" lane="VODUGES_beg_0" slope="0.00"/>
        <vehicle id="stopped" x="45.30" y="-1.65" angle="90.00" type="DEFAULT_VEHTYPE" speed="4.55" pos="45.30" lane="VODUGES_beg_0" slope="0.00"/>
    </timestep>
    <timestep time="2.40">
        <vehicle id="oncoming1" x="93.57" y="1.65" angle="270.00" type="DEFAULT_VEHTYPE" speed="5.24" pos="106.43" lane="-VODUGES_beg_0" slope="0.00"/>
        <vehicle id="oncoming2" x="193.61" y="1.65" angle="270.00" type="DEFAULT_VEHTYPE" speed="5.22" pos="6.39" lane="-VODUGES_beg_0" slope="0.00"/>
        <vehicle id="overtaking" x="6.09" y="-1.65" angle="90.00" type="DEFAULT_VEHTYPE" speed="4.86" pos="6.09" lane="VODUGES_beg_0" slope="0.00"/>
        <vehicle id="stopped" x="46.26" y="-1.65" angle="90.00" type="DEFAULT_VEHTYPE" speed="5.03" pos="46.26" lane="VODUGES_beg_0" slope="0.00"/>
    </timestep>
    <timestep time="2.60">
        <vehicle id="oncoming1" x="92.49" y="1.65" angle="270.00" type="DEFAULT_VEHTYPE" speed="5.57" pos="107.51" lane="-VODUGES_beg_0" slope="0.00"/>
        <vehicle id="oncoming2" x="192.53" y="1.65" angle="270.00" type="DEFAULT_VEHTYPE" speed="5.58" pos="7.47" lane="-VODUGES_beg_0" slope="0.00"/>
        <vehicle id="overtaking" x="7.10" y="-1.65" angle="90.00" type="DEFAULT_VEHTYPE" speed="5.20" pos="7.10" lane="VODUGES_beg_0" slope="0.00"/>
        <vehicle id="stopped" x="47.26" y="-1.65" angle="90.00" type="DEFAULT_VEHTYPE" speed="4.94" pos="47.26" lane="VODUGES_beg_0" slope="0.00"/>
    </timestep>
    <timestep time="2.80">
        <vehicle id="oncoming1" x="91.35" y="1.65" angle="270.00" type="DEFAULT_VEHTYPE" speed="5.84" pos="108.65" lane="-VODUGES_beg_0" slope="0.00"/>
        <vehicle id="oncoming2" x="191.37" y="1.65" angle="270.00" type="DEFAULT_VEHTYPE" speed="6.02" pos="8.63" lane="-VODUGES_beg_0" slope="0.00"/>
        <vehicle id="overtaking" x="8.17" y="-1.65" angle="90.00" type="DEFAULT_VEHTYPE" speed="5.48" pos="8.17" lane="VODUGES_beg_0" slope="0.00"/>
        <vehicle id="stopped" x="48.16" y="-1.65" angle="90.00" type="DEFAULT_VEHTYPE" speed="4.04" pos="48.16" lane="VODUGES_beg_0" slope="0.00"/>
    </timestep>
    <timestep time="3.00">
        <vehicle id="oncoming1" x="90.14" y="1.65" angle="270.00" type="DEFAULT_VEHTYPE" speed="6.32" pos="109.86" lane="-VODUGES_beg_0" slope="0.00"/>
        <vehicle id="oncoming2" x="190.14" y="1.65" angle="270.00" type="DEFAULT_VEHTYPE" speed="6.29" pos="9.86" lane="-VODUGES_beg_0" slope="0.00"/>
        <vehicle id="overtaking" x="9.30" y="-1.65" angle="90.00" type="DEFAULT_VEHTYPE" speed="5.85" pos="9.30" lane="VODUGES_beg_0" slope="0.00"/>
        <vehicle id="stopped" x="48.87" y="-1.65" angle="90.00" type="DEFAULT_VEHTYPE" speed="3.14" pos="48.87" lane="VODUGES_beg_0" slope="0.00"/>
    </timestep>
    <timestep time="3.20">
        <vehicle id="oncoming1" x="88.82" y="1.65" angle="270.00" type="DEFAULT_VEHTYPE" speed="6.80" pos="111.18" lane="-VODUGES_beg_0" slope="0.00"/>
        <vehicle id="oncoming2" x="188.83" y="1.65" angle="270.00" type="DEFAULT_VEHTYPE" speed="6.81" pos="11.17" lane="-VODUGES_beg_0" slope="0.00"/>
        <vehicle id="overtaking" x="10.51" y="-1.65" angle="90.00" type="DEFAULT_VEHTYPE" speed="6.20" pos="10.51" lane="VODUGES_beg_0" slope="0.00"/>
        <vehicle id="stopped" x="49.41" y="-1.65" angle="90.00" type="DEFAULT_VEHTYPE" speed="2.25" pos="49.41" lane="VODUGES_beg_0" slope="0.00"/>
    </timestep>
    <timestep time="3.40">
        <vehicle id="oncoming1" x="87.44" y="1.65" angle="270.00" type="DEFAULT_VEHTYPE" speed="7.08" pos="112.56" lane="-VODUGES_beg_0" slope="0.00"/>
        <vehicle id="oncoming2" x="187.41" y="1.65" angle="270.00" type="DEFAULT_VEHTYPE" speed="7.31" pos="12.59" lane="-VODUGES_beg_0" slope="0.00"/>
        <vehicle id="overtaking" x="11.78" y="-1.65" angle="90.00" type="DEFAULT_VEHTYPE" speed="6.58" pos="11.78" lane="VODUGES_beg_0" slope="0.00"/>
        <vehicle id="stopped" x="49.77" y="-1.65" angle="90.00" type="DEFAULT_VEHTYPE" speed="1.37" pos="49.77" lane="VODUGES_beg_0" slope="0.00"/>
    </timestep>
    <timestep time="3.60">
        <vehicle id="oncoming1" x="85.98" y="1.65" angle="270.00" type="DEFAULT_VEHTYPE" speed="7.51" pos="114.02" lane="-VODUGES_beg_0" slope="0.00"/>
        <vehicle id="oncoming2" x="185.91" y="1.65" angle="270.00" type="DEFAULT_VEHTYPE" speed="7.74" pos="14.09" lane="-VODUGES_beg_0" slope="0.00"/>
        <vehicle id="overtaking" x="13.13" y="-1.65" angle="90.00" type="DEFAULT_VEHTYPE" speed="6.84" pos="13.13" lane="VODUGES_beg_0" slope="0.00"/>
        <vehicle id="stopped" x="49.97" y="-1.65" angle="90.00" type="DEFAULT_VEHTYPE" speed="0.54" pos="49.97" lane="VODUGES_beg_0" slope="0.00"/>
    </timestep>
    <timestep time="3.80">
        <vehicle id="oncoming1" x="84.44" y="1.65" angle="270.00" type="DEFAULT_VEHTYPE" speed="7.89" pos="115.56" lane="-VODUGES_beg_0" slope="0.00"/>
        <vehicle id="oncoming2" x="184.31" y="1.65" angle="270.00" type="DEFAULT_VEHTYPE" speed="8.21" pos="15.69" lane="-VODUGES_beg_0" slope="0.00"/>
        <vehicle id="overtaking" x="14.54" y="-1.65" angle="90.00" type="DEFAULT_VEHTYPE" speed="7.34" pos="14.54" lane="VODUGES_beg_0" slope="0.00"/>
        <vehicle id="stopped" x="50.00" y="-1.65" angle="90.00" type="DEFAULT_VEHTYPE" speed="0.00" pos="50.00" lane="VODUGES_beg_0" slope="0.00"/>
    </timestep>
    <timestep time="4.00">
        <vehicle id="oncoming1" x="82.81" y="1.65" angle="270.00" type="DEFAULT_VEHTYPE" speed="8.39" pos="117.19" lane="-VODUGES_beg_0" slope="0.00"/>
        <vehicle id="oncoming2" x="182.64" y="1.65" angle="270.00" type="DEFAULT_VEHTYPE" speed="8.54" pos="17.36" lane="-VODUGES_beg_0" slope="0.00"/>
        <vehicle id="overtaking" x="16.06" y="-1.65" angle="90.00" type="DEFAULT_VEHTYPE" speed="7.85" pos="16.06" lane="VODUGES_beg_0" slope="0.00"/>
        <vehicle id="stopped" x="50.00" y="-1.65" angle="90.00" type="DEFAULT_VEHTYPE" speed="0.02" pos="50.00" lane="VODUGES_beg_0" slope="0.00"/>
    </timestep>
    <timestep time="4.20">
        <vehicle id="oncoming1" x="81.09" y="1.65" angle="270.00" type="DEFAULT_VEHTYPE" speed="8.83" pos="118.91" lane="-VODUGES_beg_0" slope="0.00"/>
        <vehicle id="oncoming2" x="180.88" y="1.65" angle="270.00" type="DEFAULT_VEHTYPE" speed="9.00" pos="19.12" lane="-VODUGES_beg_0" slope="0.00"/>
        <vehicle id="overtaking" x="17.67" y="-1.65" angle="90.00" type="DEFAULT_VEHTYPE" speed="8.28" pos="17.67" lane="VODUGES_beg_0" slope="0.00"/>
        <vehicle id="stopped" x="50.00" y="-1.65" angle="90.00" type="DEFAULT_VEHTYPE" speed="0.00" pos="50.00" lane="VODUGES_beg_0" slope="0.00"/>
    </timestep>
    <timestep time="4.40">
        <vehicle id="oncoming1" x="79.29" y="1.65" angle="270.00" type="DEFAULT_VEHTYPE" speed="9.19" pos="120.71" lane="-VODUGES_beg_0" slope="0.00"/>
        <vehicle id="oncoming2" x="179.04" y="1.65" angle="270.00" type="DEFAULT_VEHTYPE" speed="9.42" pos="20.96" lane="-VODUGES_beg_0" slope="0.00"/>
        <vehicle id="overtaking" x="19.37" y="-1.65" angle="90.00" type="DEFAULT_VEHTYPE" speed="8.69" pos="19.37" lane="VODUGES_beg_0" slope="0.00"/>
        <vehicle id="stopped" x="50.00" y="-1.65" angle="90.00" type="DEFAULT_VEHTYPE" speed="0.00" pos="50.00" lane="VODUGES_beg_0" slope="0.00"/>
    </timestep>
    <timestep time="4.60">
        <vehicle id="oncoming1" x="77.41" y="1.65" angle="270.00" type="DEFAULT_VEHTYPE" speed="9.56" pos="122.59" lane="-VODUGES_beg_0" slope="0.00"/>
        <vehicle id="oncoming2" x="177.12" y="1.65" angle="270.00" type="DEFAULT_VEHTYPE" speed="9.83" pos="22.88" lane="-VODUGES_beg_0" slope="0.00"/>
        <vehicle id="overtaking" x="21.14" y="-1.65" angle="90.00" type="DEFAULT_VEHTYPE" speed="8.99" pos="21.14" lane="VODUGES_beg_0" slope="0.00"/>
        <vehicle id="stopped" x="50.00" y="-1.65" angle="90.00" type="DEFAULT_VEHTYPE" speed="0.00" pos="50.00" lane="VODUGES_beg_0" slope="0.00"/>
    </timestep>
    <timestep time="4.80">
        <vehicle id="oncoming1" x="75.45" y="1.65" angle="270.00" type="DEFAULT_VEHTYPE" speed="10.07" pos="124.55" lane="-VODUGES_beg_0" slope="0.00"/>
        <vehicle id="oncoming2" x="175.11" y="1.65" angle="270.00" type="DEFAULT_VEHTYPE" speed="10.28" pos="24.89" lane="-VODUGES_beg_0" slope="0.00"/>
        <vehicle id="overtaking" x="22.96" y="-1.65" angle="90.00" type="DEFAULT_VEHTYPE" speed="9.26" pos="22.96" lane="VODUGES_beg_0" slope="0.00"/>
        <vehicle id="stopped" x="50.00" y="-1.65" angle="90.00" type="DEFAULT_VEHTYPE" speed="0.00" pos="50.00" lane="VODUGES_beg_0" slope="0.00"/>
    </timestep>
    <timestep time="5.00">
        <vehicle id="oncoming1" x="73.40" y="1.65" angle="270.00" type="DEFAULT_VEHTYPE" speed="10.43" pos="126.60" lane="-VODUGES_beg_0" slope="0.00"/>
        <vehicle id="oncoming2" x="173.02" y="1.65" angle="270.00" type="DEFAULT_VEHTYPE" speed="10.56" pos="26.98" lane="-VODUGES_beg_0" slope="0.00"/>
        <vehicle id="overtaking" x="24.84" y="-1.65" angle="90.00" type="DEFAULT_VEHTYPE" speed="9.55" pos="24.84" lane="VODUGES_beg_0" slope="0.00"/>
        <vehicle id="stopped" x="50.00" y="-1.65" angle="90.00" type="DEFAULT_VEHTYPE" speed="0.00" pos="50.00" lane="VODUGES_beg_0" slope="0.00"/>
    </timestep>
    <timestep time="5.20">
        <vehicle id="oncoming1" x="71.28" y="1.65" angle="270.00" type="DEFAULT_VEHTYPE" speed="10.77" pos="128.72" lane="-VODUGES_beg_0" slope="0.00"/>
        <vehicle id="oncoming2" x="170.87" y="1.65" angle="270.00" type="DEFAULT_VEHTYPE" speed="10.96" pos="29.13" lane="-VODUGES_beg_0" slope="0.00"/>
        <vehicle id="overtaking" x="26.79" y="-1.65" angle="90.00" type="DEFAULT_VEHTYPE" speed="9.96" pos="26.79" lane="VODUGES_beg_0" slope="0.00"/>
        <vehicle id="stopped" x="50.00" y="-1.65" angle="90.00" type="DEFAULT_VEHTYPE" speed="0.00" pos="50.00" lane="VODUGES_beg_0" slope="0.00"/>
    </timestep>
    <timestep time="5.40">
        <vehicle id="oncoming1" x="69.10" y="1.65" angle="270.00" type="DEFAULT_VEHTYPE" speed="11.03" pos="130.90" lane="-VODUGES_beg_0" slope="0.00"/>
        <vehicle id="oncoming2" x="168.64" y="1.65" angle="270.00" type="DEFAULT_VEHTYPE" speed="11.40" pos="31.36" lane="-VODUGES_beg_0" slope="0.00"/>
        <vehicle id="overtaking" x="28.82" y="-1.65" angle="90.00" type="DEFAULT_VEHTYPE" speed="10.33" pos="28.82" lane="VODUGES_beg_0" slope="0.00"/>
        <vehicle id="stopped" x="50.00" y="-1.65" angle="90.00" type="DEFAULT_VEHTYPE" speed="0.00" pos="50.00" lane="VODUGES_beg_0" slope="0.00"/>
    </timestep>
    <timestep time="5.60">
        <vehicle id="oncoming1" x="66.86" y="1.65" angle="270.00" type="DEFAULT_VEHTYPE" speed="11.37" pos="133.14" lane="-VODUGES_beg_0" slope="0.00"/>
        <vehicle id="oncoming2" x="166.31" y="1.65" angle="270.00" type="DEFAULT_VEHTYPE" speed="11.89" pos="33.69" lane="-VODUGES_beg_0" slope="0.00"/>
        <vehicle id="overtaking" x="30.87" y="-1.65" angle="90.00" type="DEFAULT_VEHTYPE" speed="10.14" pos="30.87" lane="VODUGES_beg_0" slope="0.00"/>
        <vehicle id="stopped" x="50.00" y="-1.65" angle="90.00" type="DEFAULT_VEHTYPE" speed="0.00" pos="50.00" lane="VODUGES_beg_0" slope="0.00"/>
    </timestep>
    <timestep time="5.80">
        <vehicle id="oncoming1" x="64.55" y="1.65" angle="270.00" type="DEFAULT_VEHTYPE" speed="11.69" pos="135.45" lane="-VODUGES_beg_0" slope="0.00"/>
        <vehicle id="oncoming2" x="163.88" y="1.65" angle="270.00" type="DEFAULT_VEHTYPE" speed="12.34" pos="36.12" lane="-VODUGES_beg_0" slope="0.00"/>
        <vehicle id="overtaking" x="32.81" y="-1.65" angle="90.00" type="DEFAULT_VEHTYPE" speed="9.24" pos="32.81" lane="VODUGES_beg_0" slope="0.00"/>
        <vehicle id="stopped" x="50.00" y="-1.65" angle="90.00" type="DEFAULT_VEHTYPE" speed="0.00" pos="50.00" lane="VODUGES_beg_0" slope="0.00"/>
    </timestep>
    <timestep time="6.00">
        <vehicle id="oncoming1" x="62.18" y="1.65" angle="270.00" type="DEFAULT_VEHTYPE" speed="12.02" pos="137.82" lane="-VODUGES_beg_0" slope="0.00"/>
        <vehicle id="oncoming2" x="161.37" y="1.65" angle="270.00" type="DEFAULT_VEHTYPE" speed="12.82" pos="38.63" lane="-VODUGES_beg_0" slope="0.00"/>
        <vehicle id="overtaking" x="34.57" y="-1.65" angle="90.00" type="DEFAULT_VEHTYPE" speed="8.41" pos="34.57" lane="VODUGES_beg_0" slope="0.00"/>
        <vehicle id="stopped" x="50.00" y="-1.65" angle="90.00" type="DEFAULT_VEHTYPE" speed="0.00" pos="50.00" lane="VODUGES_beg_0" slope="0.00"/>
    </timestep>
    <timestep time="6.20">
        <vehicle id="oncoming1" x="59.74" y="1.65" angle="270.00" type="DEFAULT_VEHTYPE" speed="12.42" pos="140.26" lane="-VODUGES_beg_0" slope="0.00"/>
        <vehicle id="oncoming2" x="158.75" y="1.65" angle="270.00" type="DEFAULT_VEHTYPE" speed="13.33" pos="41.25" lane="-VODUGES_beg_0" slope="0.00"/>
        <vehicle id="overtaking" x="36.16" y="-1.65" angle="90.00" type="DEFAULT_VEHTYPE" speed="7.51" pos="36.16" lane="VODUGES_beg_0" slope="0.00"/>
        <vehicle id="stopped" x="50.00" y="-1.65" angle="90.00" type="DEFAULT_VEHTYPE" speed="0.00" pos="50.00" lane="VODUGES_beg_0" slope="0.00"/>
    </timestep>
    <timestep time="6.40">
        <vehicle id="oncoming1" x="57.23" y="1.65" angle="270.00" type="DEFAULT_VEHTYPE" speed="12.68" pos="142.77" lane="-VODUGES_beg_0" slope="0.00"/>
        <vehicle id="oncoming2" x="156.05" y="1.65" angle="270.00" type="DEFAULT_VEHTYPE" speed="13.63" pos="43.95" lane="-VODUGES_beg_0" slope="0.00"/>
        <vehicle id="overtaking" x="37.58" y="-1.65" angle="90.00" type="DEFAULT_VEHTYPE" speed="6.61" pos="37.58" lane="VODUGES_beg_0" slope="0.00"/>
        <vehicle id="stopped" x="50.00" y="-1.65" angle="90.00" type="DEFAULT_VEHTYPE" speed="0.00" pos="50.00" lane="VODUGES_beg_0" slope="0.00"/>
    </timestep>
    <timestep time="6.60">
        <vehicle id="oncoming1" x="54.65" y="1.65" angle="270.00" type="DEFAULT_VEHTYPE" speed="13.11" pos="145.35" lane="-VODUGES_beg_0" slope="0.00"/>
        <vehicle id="oncoming2" x="153.32" y="1.65" angle="270.00" type="DEFAULT_VEHTYPE" speed="13.72" pos="46.68" lane="-VODUGES_beg_0" slope="0.00"/>
        <vehicle id="overtaking" x="38.81" y="-1.65" angle="90.00" type="DEFAULT_VEHTYPE" speed="5.71" pos="38.81" lane="VODUGES_beg_0" slope="0.00"/>
        <vehicle id="stopped" x="50.00" y="-1.65" angle="90.00" type="DEFAULT_VEHTYPE" speed="0.00" pos="50.00" lane="VODUGES_beg_0" slope="0.00"/>
    </timestep>
    <timestep time="6.80">
        <vehicle id="oncoming1" x="51.98" y="1.65" angle="270.00" type="DEFAULT_VEHTYPE" speed="13.56" pos="148.02" lane="-VODUGES_beg_0" slope="0.00"/>
        <vehicle id="oncoming2" x="150.57" y="1.65" angle="270.00" type="DEFAULT_VEHTYPE" speed="13.79" pos="49.43" lane="-VODUGES_beg_0" slope="0.00"/>
        <vehicle id="overtaking" x="39.86" y="-1.65" angle="90.00" type="DEFAULT_VEHTYPE" speed="4.81" pos="39.86" lane="VODUGES_beg_0" slope="0.00"/>
        <vehicle id="stopped" x="50.00" y="-1.65" angle="90.00" type="DEFAULT_VEHTYPE" speed="0.00" pos="50.00" lane="VODUGES_beg_0" slope="0.00"/>
    </timestep>
    <timestep time="7.00">
        <vehicle id="oncoming1" x="49.25" y="1.65" angle="270.00" type="DEFAULT_VEHTYPE" speed="13.74" pos="150.75" lane="-VODUGES_beg_0" slope="0.00"/>
        <vehicle id="oncoming2" x="147.80" y="1.65" angle="270.00" type="DEFAULT_VEHTYPE" speed="13.86" pos="52.20" lane="-VODUGES_beg_0" slope="0.00"/>
        <vehicle id="overtaking" x="40.73" y="-1.65" angle="90.00" type="DEFAULT_VEHTYPE" speed="3.91" pos="40.73" lane="VODUGES_beg_0" slope="0.00"/>
        <vehicle id="stopped" x="50.00" y="-1.65" angle="90.00" type="DEFAULT_VEHTYPE" speed="0.00" pos="50.00" lane="VODUGES_beg_0" slope="0.00"/>
    </timestep>
    <timestep time="7.20">
        <vehicle id="oncoming1" x="46.51" y="1.65" angle="270.00" type="DEFAULT_VEHTYPE" speed="13.68" pos="153.49" lane="-VODUGES_beg_0" slope="0.00"/>
        <vehicle id="oncoming2" x="145.05" y="1.65" angle="270.00" type="DEFAULT_VEHTYPE" speed="13.64" pos="54.95" lane="-VODUGES_beg_0" slope="0.00"/>
        <vehicle id="overtaking" x="41.43" y="-1.65" angle="90.00" type="DEFAULT_VEHTYPE" speed="3.01" pos="41.43" lane="VODUGES_beg_0" slope="0.00"/>
        <vehicle id="stopped" x="50.00" y="-1.65" angle="90.00" type="DEFAULT_VEHTYPE" speed="0.00" pos="50.00" lane="VODUGES_beg_0" slope="0.00"/>
    </timestep>
    <timestep time="7.40">
        <vehicle id="oncoming1" x="43.78" y="1.65" angle="270.00" type="DEFAULT_VEHTYPE" speed="13.63" pos="156.22" lane="-VODUGES_beg_0" slope="0.00"/>
        <vehicle id="oncoming2" x="142.32" y="1.65" angle="270.00" type="DEFAULT_VEHTYPE" speed="13.66" pos="57.68" lane="-VODUGES_beg_0" slope="0.00"/>
        <vehicle id="overtaking" x="41.95" y="-1.65" angle="90.00" type="DEFAULT_VEHTYPE" speed="2.22" pos="41.95" lane="VODUGES_beg_0" slope="0.00"/>
        <vehicle id="stopped" x="50.00" y="-1.65" angle="90.00" type="DEFAULT_VEHTYPE" speed="0.00" pos="50.00" lane="VODUGES_beg_0" slope="0.00"/>
    </timestep>
    <timestep time="7.60">
        <vehicle id="oncoming1" x="41.03" y="1.65" angle="270.00" type="DEFAULT_VEHTYPE" speed="13.85" pos="158.97" lane="-VODUGES_beg_0" slope="0.00"/>
        <vehicle id="oncoming2" x="139.58" y="1.65" angle="270.00" type="DEFAULT_VEHTYPE" speed="13.80" pos="60.42" lane="-VODUGES_beg_0" slope="0.00"/>
        <vehicle id="overtaking" x="42.30" y="-1.65" angle="90.00" type="DEFAULT_VEHTYPE" speed="1.32" pos="42.30" lane="VODUGES_beg_0" slope="0.00"/>
        <vehicle id="stopped" x="50.00" y="-1.65" angle="90.00" type="DEFAULT_VEHTYPE" speed="0.00" pos="50.00" lane="VODUGES_beg_0" slope="0.00"/>
    </timestep>
    <timestep time="7.80">
        <vehicle id="oncoming1" x="38.26" y="1.65" angle="270.00" type="DEFAULT_VEHTYPE" speed="13.80" pos="161.74" lane="-VODUGES_beg_0" slope="0.00"/>
        <vehicle id="oncoming2" x="136.81" y="1.65" angle="270.00" type="DEFAULT_VEHTYPE" speed="13.89" pos="63.19" lane="-VODUGES_beg_0" slope="0.00"/>
        <vehicle id="overtaking" x="42.48" y="-1.65" angle="90.00" type="DEFAULT_VEHTYPE" speed="0.42" pos="42.48" lane="VODUGES_beg_0" slope="0.00"/>
        <vehicle id="stopped" x="50.00" y="-1.65" angle="90.00" type="DEFAULT_VEHTYPE" speed="0.00" pos="50.00" lane="VODUGES_beg_0" slope="0.00"/>
    </timestep>
    <timestep time="8.00">
        <vehicle id="oncoming1" x="35.52" y="1.65" angle="270.00" type="DEFAULT_VEHTYPE" speed="13.65" pos="164.48" lane="-VODUGES_beg_0" slope="0.00"/>
        <vehicle id="oncoming2" x="134.03" y="1.65" angle="270.00" type="DEFAULT_VEHTYPE" speed="13.89" pos="65.97" lane="-VODUGES_beg_0" slope="0.00"/>
        <vehicle id="overtaking" x="42.50" y="-1.65" angle="90.00" type="DEFAULT_VEHTYPE" speed="0.00" pos="42.50" lane="VODUGES_beg_0" slope="0.00"/>
        <vehicle id="stopped" x="50.00" y="-1.65" angle="90.00" type="DEFAULT_VEHTYPE" speed="0.00" pos="50.00" lane="VODUGES_beg_0" slope="0.00"/>
    </timestep>
    <timestep time="8.20">
        <vehicle id="oncoming1" x="32.78" y="1.65" angle="270.00" type="DEFAULT_VEHTYPE" speed="13.78" pos="167.22" lane="-VODUGES_beg_0" slope="0.00"/>
        <vehicle id="oncoming2" x="131.25" y="1.65" angle="270.00" type="DEFAULT_VEHTYPE" speed="13.86" pos="68.75" lane="-VODUGES_beg_0" slope="0.00"/>
        <vehicle id="overtaking" x="42.50" y="-1.65" angle="90.00" type="DEFAULT_VEHTYPE" speed="0.02" pos="42.50" lane="VODUGES_beg_0" slope="0.00"/>
        <vehicle id="stopped" x="50.00" y="-1.65" angle="90.00" type="DEFAULT_VEHTYPE" speed="0.00" pos="50.00" lane="VODUGES_beg_0" slope="0.00"/>
    </timestep>
    <timestep time="8.40">
        <vehicle id="oncoming1" x="30.03" y="1.65" angle="270.00" type="DEFAULT_VEHTYPE" speed="13.68" pos="169.97" lane="-VODUGES_beg_0" slope="0.00"/>
        <vehicle id="oncoming2" x="128.49" y="1.65" angle="270.00" type="DEFAULT_VEHTYPE" speed="13.79" pos="71.51" lane="-VODUGES_beg_0" slope="0.00"/>
        <vehicle id="overtaking" x="42.50" y="-1.65" angle="90.00" type="DEFAULT_VEHTYPE" speed="0.00" pos="42.50" lane="VODUGES_beg_0" slope="0.00"/>
        <vehicle id="stopped" x="50.00" y="-1.65" angle="90.00" type="DEFAULT_VEHTYPE" speed="0.00" pos="50.00" lane="VODUGES_beg_0" slope="0.00"/>
    </timestep>
    <timestep time="8.60">
        <vehicle id="oncoming1" x="27.30" y="1.65" angle="270.00" type="DEFAULT_VEHTYPE" speed="13.65" pos="172.70" lane="-VODUGES_beg_0" slope="0.00"/>
        <vehicle id="oncoming2" x="125.74" y="1.65" angle="270.00" type="DEFAULT_VEHTYPE" speed="13.69" pos="74.26" lane="-VODUGES_beg_0" slope="0.00"/>
        <vehicle id="overtaking" x="42.50" y="-1.65" angle="90.00" type="DEFAULT_VEHTYPE" speed="0.00" pos="42.50" lane="VODUGES_beg_0" slope="0.00"/>
        <vehicle id="stopped" x="50.00" y="-1.65" angle="90.00" type="DEFAULT_VEHTYPE" speed="0.00" pos="50.00" lane="VODUGES_beg_0" slope="0.00"/>
    </timestep>
    <timestep time="8.80">
        <vehicle id="oncoming1" x="24.57" y="1.65" angle="270.00" type="DEFAULT_VEHTYPE" speed="13.67" pos="175.43" lane="-VODUGES_beg_0" slope="0.00"/>
        <vehicle id="oncoming2" x="122.99" y="1.65" angle="270.00" type="DEFAULT_VEHTYPE" speed="13.80" pos="77.01" lane="-VODUGES_beg_0" slope="0.00"/>
        <vehicle id="overtaking" x="42.50" y="-1.65" angle="90.00" type="DEFAULT_VEHTYPE" speed="0.00" pos="42.50" lane="VODUGES_beg_0" slope="0.00"/>
        <vehicle id="stopped" x="50.00" y="-1.65" angle="90.00" type="DEFAULT_VEHTYPE" speed="0.00" pos="50.00" lane="VODUGES_beg_0" slope="0.00"/>