<?xml version="1.0" encoding="UTF-8"?>

<!-- generated on Tue Sep 13 12:08:03 2016 by SUMO Version dev-SVN-r21424
<?xml version="1.0" encoding="UTF-8"?>

<configuration xmlns:xsi="http://www.w3.org/2001/XMLSchema-instance" xsi:noNamespaceSchemaLocation="http://sumo.dlr.de/xsd/sumoConfiguration.xsd">

    <input>
        <net-file value="net.net.xml"/>
        <route-files value="input_routes.rou.xml"/>
    </input>

    <output>
        <fcd-output value="fcd.xml"/>
        <tripinfo-output value="tripinfos.xml"/>
    </output>

    <time>
        <step-length value="0.2"/>
    </time>

    <processing>
        <step-method.ballistic value="true"/>
    </processing>

    <report>
        <xml-validation value="never"/>
        <no-step-log value="true"/>
    </report>

</configuration>
-->

<fcd-export xmlns:xsi="http://www.w3.org/2001/XMLSchema-instance" xsi:noNamespaceSchemaLocation="http://sumo.dlr.de/xsd/fcd_file.xsd">
    <timestep time="0.00">
        <vehicle id="oncoming1" x="100.00" y="1.65" angle="270.00" type="DEFAULT_VEHTYPE" speed="0.00" pos="100.00" lane="-VODUGES_beg_0" slope="0.00"/>
        <vehicle id="oncoming2" x="200.00" y="1.65" angle="270.00" type="DEFAULT_VEHTYPE" speed="0.00" pos="0.00" lane="-VODUGES_beg_0" slope="0.00"/>
        <vehicle id="overtaking" x="0.00" y="-1.65" angle="90.00" type="DEFAULT_VEHTYPE" speed="0.00" pos="0.00" lane="VODUGES_beg_0" slope="0.00"/>
        <vehicle id="stopped" x="40.00" y="-1.65" angle="90.00" type="DEFAULT_VEHTYPE" speed="0.00" pos="40.00" lane="VODUGES_beg_0" slope="0.00"/>
    </timestep>
    <timestep time="0.20">
        <vehicle id="oncoming1" x="99.95" y="1.65" angle="270.00" type="DEFAULT_VEHTYPE" speed="0.52" pos="100.05" lane="-VODUGES_beg_0" slope="0.00"/>
        <vehicle id="oncoming2" x="199.95" y="1.65" angle="270.00" type="DEFAULT_VEHTYPE" speed="0.49" pos="0.05" lane="-VODUGES_beg_0" slope="0.00"/>
        <vehicle id="overtaking" x="0.05" y="-1.65" angle="90.00" type="DEFAULT_VEHTYPE" speed="0.48" pos="0.05" lane="VODUGES_beg_0" slope="0.00"/>
        <vehicle id="stopped" x="40.05" y="-1.65" angle="90.00" type="DEFAULT_VEHTYPE" speed="0.47" pos="40.05" lane="VODUGES_beg_0" slope="0.00"/>
    </timestep>
    <timestep time="0.40">
        <vehicle id="oncoming1" x="99.80" y="1.65" angle="270.00" type="DEFAULT_VEHTYPE" speed="0.96" pos="100.20" lane="-VODUGES_beg_0" slope="0.00"/>
        <vehicle id="oncoming2" x="199.80" y="1.65" angle="270.00" type="DEFAULT_VEHTYPE" speed="0.99" pos="0.20" lane="-VODUGES_beg_0" slope="0.00"/>
        <vehicle id="overtaking" x="0.20" y="-1.65" angle="90.00" type="DEFAULT_VEHTYPE" speed="1.00" pos="0.20" lane="VODUGES_beg_0" slope="0.00"/>
        <vehicle id="stopped" x="40.19" y="-1.65" angle="90.00" type="DEFAULT_VEHTYPE" speed="0.94" pos="40.19" lane="VODUGES_beg_0" slope="0.00"/>
    </timestep>
    <timestep time="0.60">
        <vehicle id="oncoming1" x="99.56" y="1.65" angle="270.00" type="DEFAULT_VEHTYPE" speed="1.48" pos="100.44" lane="-VODUGES_beg_0" slope="0.00"/>
        <vehicle id="oncoming2" x="199.56" y="1.65" angle="270.00" type="DEFAULT_VEHTYPE" speed="1.41" pos="0.44" lane="-VODUGES_beg_0" slope="0.00"/>
        <vehicle id="overtaking" x="0.44" y="-1.65" angle="90.00" type="DEFAULT_VEHTYPE" speed="1.41" pos="0.44" lane="VODUGES_beg_0" slope="0.00"/>
        <vehicle id="stopped" x="40.42" y="-1.65" angle="90.00" type="DEFAULT_VEHTYPE" speed="1.38" pos="40.42" lane="VODUGES_beg_0" slope="0.00"/>
    </timestep>
    <timestep time="0.80">
        <vehicle id="oncoming1" x="99.22" y="1.65" angle="270.00" type="DEFAULT_VEHTYPE" speed="1.89" pos="100.78" lane="-VODUGES_beg_0" slope="0.00"/>
        <vehicle id="oncoming2" x="199.23" y="1.65" angle="270.00" type="DEFAULT_VEHTYPE" speed="1.88" pos="0.77" lane="-VODUGES_beg_0" slope="0.00"/>
        <vehicle id="overtaking" x="0.76" y="-1.65" angle="90.00" type="DEFAULT_VEHTYPE" speed="1.84" pos="0.76" lane="VODUGES_beg_0" slope="0.00"/>
        <vehicle id="stopped" x="40.74" y="-1.65" angle="90.00" type="DEFAULT_VEHTYPE" speed="1.81" pos="40.74" lane="VODUGES_beg_0" slope="0.00"/>
    </timestep>
    <timestep time="1.00">
        <vehicle id="oncoming1" x="98.80" y="1.65" angle="270.00" type="DEFAULT_VEHTYPE" speed="2.33" pos="101.20" lane="-VODUGES_beg_0" slope="0.00"/>
        <vehicle id="oncoming2" x="198.82" y="1.65" angle="270.00" type="DEFAULT_VEHTYPE" speed="2.23" pos="1.18" lane="-VODUGES_beg_0" slope="0.00"/>
        <vehicle id="overtaking" x="1.16" y="-1.65" angle="90.00" type="DEFAULT_VEHTYPE" speed="2.15" pos="1.16" lane="VODUGES_beg_0" slope="0.00"/>
        <vehicle id="stopped" x="41.15" y="-1.65" angle="90.00" type="DEFAULT_VEHTYPE" speed="2.31" pos="41.15" lane="VODUGES_beg_0" slope="0.00"/>
    </timestep>
    <timestep time="1.20">
        <vehicle id="oncoming1" x="98.29" y="1.65" angle="270.00" type="DEFAULT_VEHTYPE" speed="2.77" pos="101.71" lane="-VODUGES_beg_0" slope="0.00"/>
        <vehicle id="oncoming2" x="198.34" y="1.65" angle="270.00" type="DEFAULT_VEHTYPE" speed="2.59" pos="1.66" lane="-VODUGES_beg_0" slope="0.00"/>
        <vehicle id="overtaking" x="1.63" y="-1.65" angle="90.00" type="DEFAULT_VEHTYPE" speed="2.54" pos="1.63" lane="VODUGES_beg_0" slope="0.00"/>
        <vehicle id="stopped" x="41.66" y="-1.65" angle="90.00" type="DEFAULT_VEHTYPE" speed="2.82" pos="41.66" lane="VODUGES_beg_0" slope="0.00"/>
    </timestep>
    <timestep time="1.40">
        <vehicle id="oncoming1" x="97.71" y="1.65" angle="270.00" type="DEFAULT_VEHTYPE" speed="3.06" pos="102.29" lane="-VODUGES_beg_0" slope="0.00"/>
        <vehicle id="oncoming2" x="197.78" y="1.65" angle="270.00" type="DEFAULT_VEHTYPE" speed="3.01" pos="2.22" lane="-VODUGES_beg_0" slope="0.00"/>
        <vehicle id="overtaking" x="2.17" y="-1.65" angle="90.00" type="DEFAULT_VEHTYPE" speed="2.84" pos="2.17" lane="VODUGES_beg_0" slope="0.00"/>
        <vehicle id="stopped" x="42.25" y="-1.65" angle="90.00" type="DEFAULT_VEHTYPE" speed="3.10" pos="42.25" lane="VODUGES_beg_0" slope="0.00"/>
    </timestep>
    <timestep time="1.60">
        <vehicle id="oncoming1" x="97.04" y="1.65" angle="270.00" type="DEFAULT_VEHTYPE" speed="3.57" pos="102.96" lane="-VODUGES_beg_0" slope="0.00"/>
        <vehicle id="oncoming2" x="197.14" y="1.65" angle="270.00" type="DEFAULT_VEHTYPE" speed="3.45" pos="2.86" lane="-VODUGES_beg_0" slope="0.00"/>
        <vehicle id="overtaking" x="2.78" y="-1.65" angle="90.00" type="DEFAULT_VEHTYPE" speed="3.30" pos="2.78" lane="VODUGES_beg_0" slope="0.00"/>
        <vehicle id="stopped" x="42.91" y="-1.65" angle="90.00" type="DEFAULT_VEHTYPE" speed="3.45" pos="42.91" lane="VODUGES_beg_0" slope="0.00"/>
    </timestep>
    <timestep time="1.80">
        <vehicle id="oncoming1" x="96.30" y="1.65" angle="270.00" type="DEFAULT_VEHTYPE" speed="3.84" pos="103.70" lane="-VODUGES_beg_0" slope="0.00"/>
        <vehicle id="oncoming2" x="196.40" y="1.65" angle="270.00" type="DEFAULT_VEHTYPE" speed="3.96" pos="3.60" lane="-VODUGES_beg_0" slope="0.00"/>
        <vehicle id="overtaking" x="3.49" y="-1.65" angle="90.00" type="DEFAULT_VEHTYPE" speed="3.78" pos="3.49" lane="VODUGES_beg_0" slope="0.00"/>
        <vehicle id="stopped" x="43.61" y="-1.65" angle="90.00" type="DEFAULT_VEHTYPE" speed="3.57" pos="43.61" lane="VODUGES_beg_0" slope="0.00"/>
    </timestep>
    <timestep time="2.00">
        <vehicle id="oncoming1" x="95.48" y="1.65" angle="270.00" type="DEFAULT_VEHTYPE" speed="4.33" pos="104.52" lane="-VODUGES_beg_0" slope="0.00"/>
        <vehicle id="oncoming2" x="195.56" y="1.65" angle="270.00" type="DEFAULT_VEHTYPE" speed="4.45" pos="4.44" lane="-VODUGES_beg_0" slope="0.00"/>
        <vehicle id="overtaking" x="4.29" y="-1.65" angle="90.00" type="DEFAULT_VEHTYPE" speed="4.22" pos="4.29" lane="VODUGES_beg_0" slope="0.00"/>
        <vehicle id="stopped" x="44.33" y="-1.65" angle="90.00" type="DEFAULT_VEHTYPE" speed="3.59" pos="44.33" lane="VODUGES_beg_0" slope="0.00"/>
    </timestep>
    <timestep time="2.20">
        <vehicle id="oncoming1" x="94.57" y="1.65" angle="270.00" type="DEFAULT_VEHTYPE" speed="4.78" pos="105.43" lane="-VODUGES_beg_0" slope="0.00"/>
        <vehicle id="oncoming2" x="194.62" y="1.65" angle="270.00" type="DEFAULT_VEHTYPE" speed="4.91" pos="5.38" lane="-VODUGES_beg_0" slope="0.00"/>
        <vehicle id="overtaking" x="5.16" y="-1.65" angle="90.00" type="DEFAULT_VEHTYPE" speed="4.48" pos="5.16" lane="VODUGES_beg_0" slope="0.00"/>
        <vehicle id="stopped" x="45.04" y="-1.65" angle="90.00" type="DEFAULT_VEHTYPE" speed="3.58" pos="45.04" lane="VODUGES_beg_0" slope="0.00"/>
    </timestep>
    <timestep time="2.40">
        <vehicle id="oncoming1" x="93.57" y="1.65" angle="270.00" type="DEFAULT_VEHTYPE" speed="5.24" pos="106.43" lane="-VODUGES_beg_0" slope="0.00"/>
        <vehicle id="oncoming2" x="193.61" y="1.65" angle="270.00" type="DEFAULT_VEHTYPE" speed="5.22" pos="6.39" lane="-VODUGES_beg_0" slope="0.00"/>
        <vehicle id="overtaking" x="6.09" y="-1.65" angle="90.00" type="DEFAULT_VEHTYPE" speed="4.86" pos="6.09" lane="VODUGES_beg_0" slope="0.00"/>
        <vehicle id="stopped" x="45.75" y="-1.65" angle="90.00" type="DEFAULT_VEHTYPE" speed="3.53" pos="45.75" lane="VODUGES_beg_0" slope="0.00"/>
    </timestep>
    <timestep time="2.60">
        <vehicle id="oncoming1" x="92.49" y="1.65" angle="270.00" type="DEFAULT_VEHTYPE" speed="5.57" pos="107.51" lane="-VODUGES_beg_0" slope="0.00"/>
        <vehicle id="oncoming2" x="192.53" y="1.65" angle="270.00" type="DEFAULT_VEHTYPE" speed="5.58" pos="7.47" lane="-VODUGES_beg_0" slope="0.00"/>
        <vehicle id="overtaking" x="7.10" y="-1.65" angle="90.00" type="DEFAULT_VEHTYPE" speed="5.20" pos="7.10" lane="VODUGES_beg_0" slope="0.00"/>
        <vehicle id="stopped" x="46.45" y="-1.65" angle="90.00" type="DEFAULT_VEHTYPE" speed="3.40" pos="46.45" lane="VODUGES_beg_0" slope="0.00"/>
    </timestep>
    <timestep time="2.80">
        <vehicle id="oncoming1" x="91.35" y="1.65" angle="270.00" type="DEFAULT_VEHTYPE" speed="5.84" pos="108.65" lane="-VODUGES_beg_0" slope="0.00"/>
        <vehicle id="oncoming2" x="191.37" y="1.65" angle="270.00" type="DEFAULT_VEHTYPE" speed="6.02" pos="8.63" lane="-VODUGES_beg_0" slope="0.00"/>
        <vehicle id="overtaking" x="8.17" y="-1.65" angle="90.00" type="DEFAULT_VEHTYPE" speed="5.48" pos="8.17" lane="VODUGES_beg_0" slope="0.00"/>
        <vehicle id="stopped" x="47.09" y="-1.65" angle="90.00" type="DEFAULT_VEHTYPE" speed="3.02" pos="47.09" lane="VODUGES_beg_0" slope="0.00"/>
    </timestep>
    <timestep time="3.00">
        <vehicle id="oncoming1" x="90.14" y="1.65" angle="270.00" type="DEFAULT_VEHTYPE" speed="6.32" pos="109.86" lane="-VODUGES_beg_0" slope="0.00"/>
        <vehicle id="oncoming2" x="190.14" y="1.65" angle="270.00" type="DEFAULT_VEHTYPE" speed="6.29" pos="9.86" lane="-VODUGES_beg_0" slope="0.00"/>
        <vehicle id="overtaking" x="9.30" y="-1.65" angle="90.00" type="DEFAULT_VEHTYPE" speed="5.85" pos="9.30" lane="VODUGES_beg_0" slope="0.00"/>
        <vehicle id="stopped" x="47.66" y="-1.65" angle="90.00" type="DEFAULT_VEHTYPE" speed="2.68" pos="47.66" lane="VODUGES_beg_0" slope="0.00"/>
    </timestep>
    <timestep time="3.20">
        <vehicle id="oncoming1" x="88.82" y="1.65" angle="270.00" type="DEFAULT_VEHTYPE" speed="6.80" pos="111.18" lane="-VODUGES_beg_0" slope="0.00"/>
        <vehicle id="oncoming2" x="188.83" y="1.65" angle="270.00" type="DEFAULT_VEHTYPE" speed="6.81" pos="11.17" lane="-VODUGES_beg_0" slope="0.00"/>
        <vehicle id="overtaking" x="10.51" y="-1.65" angle="90.00" type="DEFAULT_VEHTYPE" speed="6.20" pos="10.51" lane="VODUGES_beg_0" slope="0.00"/>
        <vehicle id="stopped" x="48.17" y="-1.65" angle="90.00" type="DEFAULT_VEHTYPE" speed="2.40" pos="48.17" lane="VODUGES_beg_0" slope="0.00"/>
    </timestep>
    <timestep time="3.40">
        <vehicle id="oncoming1" x="87.44" y="1.65" angle="270.00" type="DEFAULT_VEHTYPE" speed="7.08" pos="112.56" lane="-VODUGES_beg_0" slope="0.00"/>
        <vehicle id="oncoming2" x="187.41" y="1.65" angle="270.00" type="DEFAULT_VEHTYPE" speed="7.31" pos="12.59" lane="-VODUGES_beg_0" slope="0.00"/>
        <vehicle id="overtaking" x="11.78" y="-1.65" angle="90.00" type="DEFAULT_VEHTYPE" speed="6.58" pos="11.78" lane="VODUGES_beg_0" slope="0.00"/>
        <vehicle id="stopped" x="48.61" y="-1.65" angle="90.00" type="DEFAULT_VEHTYPE" speed="2.07" pos="48.61" lane="VODUGES_beg_0" slope="0.00"/>
    </timestep>
    <timestep time="3.60">
        <vehicle id="oncoming1" x="85.98" y="1.65" angle="270.00" type="DEFAULT_VEHTYPE" speed="7.51" pos="114.02" lane="-VODUGES_beg_0" slope="0.00"/>
        <vehicle id="oncoming2" x="185.91" y="1.65" angle="270.00" type="DEFAULT_VEHTYPE" speed="7.74" pos="14.09" lane="-VODUGES_beg_0" slope="0.00"/>
        <vehicle id="overtaking" x="13.13" y="-1.65" angle="90.00" type="DEFAULT_VEHTYPE" speed="6.84" pos="13.13" lane="VODUGES_beg_0" slope="0.00"/>
        <vehicle id="stopped" x="48.99" y="-1.65" angle="90.00" type="DEFAULT_VEHTYPE" speed="1.74" pos="48.99" lane="VODUGES_beg_0" slope="0.00"/>
    </timestep>
    <timestep time="3.80">
        <vehicle id="oncoming1" x="84.43" y="1.65" angle="270.00" type="DEFAULT_VEHTYPE" speed="7.98" pos="115.57" lane="-VODUGES_beg_0" slope="0.00"/>
        <vehicle id="oncoming2" x="184.31" y="1.65" angle="270.00" type="DEFAULT_VEHTYPE" speed="8.21" pos="15.69" lane="-VODUGES_beg_0" slope="0.00"/>
        <vehicle id="overtaking" x="14.53" y="-1.65" angle="90.00" type="DEFAULT_VEHTYPE" speed="7.21" pos="14.53" lane="VODUGES_beg_0" slope="0.00"/>
        <vehicle id="stopped" x="49.31" y="-1.65" angle="90.00" type="DEFAULT_VEHTYPE" speed="1.43" pos="49.31" lane="VODUGES_beg_0" slope="0.00"/>
    </timestep>
    <timestep time="4.00">
        <vehicle id="oncoming1" x="82.80" y="1.65" angle="270.00" type="DEFAULT_VEHTYPE" speed="8.31" pos="117.20" lane="-VODUGES_beg_0" slope="0.00"/>
        <vehicle id="oncoming2" x="182.63" y="1.65" angle="270.00" type="DEFAULT_VEHTYPE" speed="8.64" pos="17.37" lane="-VODUGES_beg_0" slope="0.00"/>
        <vehicle id="overtaking" x="16.02" y="-1.65" angle="90.00" type="DEFAULT_VEHTYPE" speed="7.71" pos="16.02" lane="VODUGES_beg_0" slope="0.00"/>
        <vehicle id="stopped" x="49.57" y="-1.65" angle="90.00" type="DEFAULT_VEHTYPE" speed="1.13" pos="49.57" lane="VODUGES_beg_0" slope="0.00"/>
    </timestep>
    <timestep time="4.20">
        <vehicle id="oncoming1" x="81.10" y="1.65" angle="270.00" type="DEFAULT_VEHTYPE" speed="8.66" pos="118.90" lane="-VODUGES_beg_0" slope="0.00"/>
        <vehicle id="oncoming2" x="180.86" y="1.65" angle="270.00" type="DEFAULT_VEHTYPE" speed="9.05" pos="19.14" lane="-VODUGES_beg_0" slope="0.00"/>
        <vehicle id="overtaking" x="17.61" y="-1.65" angle="90.00" type="DEFAULT_VEHTYPE" speed="8.18" pos="17.61" lane="VODUGES_beg_0" slope="0.00"/>
        <vehicle id="stopped" x="49.76" y="-1.65" angle="90.00" type="DEFAULT_VEHTYPE" speed="0.81" pos="49.76" lane="VODUGES_beg_0" slope="0.00"/>
    </timestep>
    <timestep time="4.40">
        <vehicle id="oncoming1" x="79.33" y="1.65" angle="270.00" type="DEFAULT_VEHTYPE" speed="9.04" pos="120.67" lane="-VODUGES_beg_0" slope="0.00"/>
        <vehicle id="oncoming2" x="179.02" y="1.65" angle="270.00" type="DEFAULT_VEHTYPE" speed="9.36" pos="20.98" lane="-VODUGES_beg_0" slope="0.00"/>
        <vehicle id="overtaking" x="19.29" y="-1.65" angle="90.00" type="DEFAULT_VEHTYPE" speed="8.60" pos="19.29" lane="VODUGES_beg_0" slope="0.00"/>
        <vehicle id="stopped" x="49.89" y="-1.65" angle="90.00" type="DEFAULT_VEHTYPE" speed="0.50" pos="49.89" lane="VODUGES_beg_0" slope="0.00"/>
    </timestep>
    <timestep time="4.60">
        <vehicle id="oncoming1" x="77.48" y="1.65" angle="270.00" type="DEFAULT_VEHTYPE" speed="9.47" pos="122.52" lane="-VODUGES_beg_0" slope="0.00"/>
        <vehicle id="oncoming2" x="177.12" y="1.65" angle="270.00" type="DEFAULT_VEHTYPE" speed="9.62" pos="22.88" lane="-VODUGES_beg_0" slope="0.00"/>
        <vehicle id="overtaking" x="21.05" y="-1.65" angle="90.00" type="DEFAULT_VEHTYPE" speed="8.96" pos="21.05" lane="VODUGES_beg_0" slope="0.00"/>
        <vehicle id="stopped" x="49.97" y="-1.65" angle="90.00" type="DEFAULT_VEHTYPE" speed="0.25" pos="49.97" lane="VODUGES_beg_0" slope="0.00"/>
    </timestep>
    <timestep time="4.80">
        <vehicle id="oncoming1" x="75.54" y="1.65" angle="270.00" type="DEFAULT_VEHTYPE" speed="9.96" pos="124.46" lane="-VODUGES_beg_0" slope="0.00"/>
        <vehicle id="oncoming2" x="175.16" y="1.65" angle="270.00" type="DEFAULT_VEHTYPE" speed="9.92" pos="24.84" lane="-VODUGES_beg_0" slope="0.00"/>
        <vehicle id="overtaking" x="22.86" y="-1.65" angle="90.00" type="DEFAULT_VEHTYPE" speed="9.15" pos="22.86" lane="VODUGES_beg_0" slope="0.00"/>
        <vehicle id="stopped" x="50.00" y="-1.65" angle="90.00" type="DEFAULT_VEHTYPE" speed="0.05" pos="50.00" lane="VODUGES_beg_0" slope="0.00"/>
    </timestep>
    <timestep time="5.00">
        <vehicle id="oncoming1" x="73.52" y="1.65" angle="270.00" type="DEFAULT_VEHTYPE" speed="10.24" pos="126.48" lane="-VODUGES_beg_0" slope="0.00"/>
        <vehicle id="oncoming2" x="173.14" y="1.65" angle="270.00" type="DEFAULT_VEHTYPE" speed="10.31" pos="26.86" lane="-VODUGES_beg_0" slope="0.00"/>
        <vehicle id="overtaking" x="24.68" y="-1.65" angle="90.00" type="DEFAULT_VEHTYPE" speed="9.08" pos="24.68" lane="VODUGES_beg_0" slope="0.00"/>
        <vehicle id="stopped" x="50.00" y="-1.65" angle="90.00" type="DEFAULT_VEHTYPE" speed="0.00" pos="50.00" lane="VODUGES_beg_0" slope="0.00"/>
    </timestep>
    <timestep time="5.20">
        <vehicle id="oncoming1" x="71.43" y="1.65" angle="270.00" type="DEFAULT_VEHTYPE" speed="10.64" pos="128.57" lane="-VODUGES_beg_0" slope="0.00"/>
        <vehicle id="oncoming2" x="171.05" y="1.65" angle="270.00" type="DEFAULT_VEHTYPE" speed="10.60" pos="28.95" lane="-VODUGES_beg_0" slope="0.00"/>
        <vehicle id="overtaking" x="26.47" y="-1.65" angle="90.00" type="DEFAULT_VEHTYPE" speed="8.86" pos="26.47" lane="VODUGES_beg_0" slope="0.00"/>
        <vehicle id="stopped" x="50.00" y="-1.65" angle="90.00" type="DEFAULT_VEHTYPE" speed="0.00" pos="50.00" lane="VODUGES_beg_0" slope="0.00"/>
    </timestep>
    <timestep time="5.40">
        <vehicle id="oncoming1" x="69.26" y="1.65" angle="270.00" type="DEFAULT_VEHTYPE" speed="11.08" pos="130.74" lane="-VODUGES_beg_0" slope="0.00"/>
        <vehicle id="oncoming2" x="168.89" y="1.65" angle="270.00" type="DEFAULT_VEHTYPE" speed="11.01" pos="31.11" lane="-VODUGES_beg_0" slope="0.00"/>
        <vehicle id="overtaking" x="28.21" y="-1.65" angle="90.00" type="DEFAULT_VEHTYPE" speed="8.48" pos="28.21" lane="VODUGES_beg_0" slope="0.00"/>
        <vehicle id="stopped" x="50.00" y="-1.65" angle="90.00" type="DEFAULT_VEHTYPE" speed="0.00" pos="50.00" lane="VODUGES_beg_0" slope="0.00"/>
    </timestep>
    <timestep time="5.60">
        <vehicle id="oncoming1" x="66.99" y="1.65" angle="270.00" type="DEFAULT_VEHTYPE" speed="11.58" pos="133.01" lane="-VODUGES_beg_0" slope="0.00"/>
        <vehicle id="oncoming2" x="166.65" y="1.65" angle="270.00" type="DEFAULT_VEHTYPE" speed="11.41" pos="33.35" lane="-VODUGES_beg_0" slope="0.00"/>
        <vehicle id="overtaking" x="29.87" y="-1.65" angle="90.00" type="DEFAULT_VEHTYPE" speed="8.11" pos="29.87" lane="VODUGES_beg_0" slope="0.00"/>
        <vehicle id="stopped" x="50.00" y="-1.65" angle="90.00" type="DEFAULT_VEHTYPE" speed="0.00" pos="50.00" lane="VODUGES_beg_0" slope="0.00"/>
    </timestep>
    <timestep time="5.80">
        <vehicle id="oncoming1" x="64.63" y="1.65" angle="270.00" type="DEFAULT_VEHTYPE" speed="12.03" pos="135.37" lane="-VODUGES_beg_0" slope="0.00"/>
        <vehicle id="oncoming2" x="164.33" y="1.65" angle="270.00" type="DEFAULT_VEHTYPE" speed="11.75" pos="35.67" lane="-VODUGES_beg_0" slope="0.00"/>
        <vehicle id="overtaking" x="31.44" y="-1.65" angle="90.00" type="DEFAULT_VEHTYPE" speed="7.65" pos="31.44" lane="VODUGES_beg_0" slope="0.00"/>
        <vehicle id="stopped" x="50.00" y="-1.65" angle="90.00" type="DEFAULT_VEHTYPE" speed="0.00" pos="50.00" lane="VODUGES_beg_0" slope="0.00"/>
    </timestep>
    <timestep time="6.00">
        <vehicle id="oncoming1" x="62.18" y="1.65" angle="270.00" type="DEFAULT_VEHTYPE" speed="12.51" pos="137.82" lane="-VODUGES_beg_0" slope="0.00"/>
        <vehicle id="oncoming2" x="161.95" y="1.65" angle="270.00" type="DEFAULT_VEHTYPE" speed="12.04" pos="38.05" lane="-VODUGES_beg_0" slope="0.00"/>
        <vehicle id="overtaking" x="32.92" y="-1.65" angle="90.00" type="DEFAULT_VEHTYPE" speed="7.16" pos="32.92" lane="VODUGES_beg_0" slope="0.00"/>
        <vehicle id="stopped" x="50.00" y="-1.65" angle="90.00" type="DEFAULT_VEHTYPE" speed="0.00" pos="50.00" lane="VODUGES_beg_0" slope="0.00"/>
    </timestep>
    <timestep time="6.20">
        <vehicle id="oncoming1" x="59.62" y="1.65" angle="270.00" type="DEFAULT_VEHTYPE" speed="13.02" pos="140.38" lane="-VODUGES_beg_0" slope="0.00"/>
        <vehicle id="oncoming2" x="159.50" y="1.65" angle="270.00" type="DEFAULT_VEHTYPE" speed="12.46" pos="40.50" lane="-VODUGES_beg_0" slope="0.00"/>
        <vehicle id="overtaking" x="34.31" y="-1.65" angle="90.00" type="DEFAULT_VEHTYPE" speed="6.69" pos="34.31" lane="VODUGES_beg_0" slope="0.00"/>
        <vehicle id="stopped" x="50.00" y="-1.65" angle="90.00" type="DEFAULT_VEHTYPE" speed="0.00" pos="50.00" lane="VODUGES_beg_0" slope="0.00"/>
    </timestep>
    <timestep time="6.40">
        <vehicle id="oncoming1" x="56.99" y="1.65" angle="270.00" type="DEFAULT_VEHTYPE" speed="13.32" pos="143.01" lane="-VODUGES_beg_0" slope="0.00"/>
        <vehicle id="oncoming2" x="156.96" y="1.65" angle="270.00" type="DEFAULT_VEHTYPE" speed="12.94" pos="43.04" lane="-VODUGES_beg_0" slope="0.00"/>
        <vehicle id="overtaking" x="35.58" y="-1.65" angle="90.00" type="DEFAULT_VEHTYPE" speed="6.04" pos="35.58" lane="VODUGES_beg_0" slope="0.00"/>
        <vehicle id="stopped" x="50.00" y="-1.65" angle="90.00" type="DEFAULT_VEHTYPE" speed="0.00" pos="50.00" lane="VODUGES_beg_0" slope="0.00"/>
    </timestep>
    <timestep time="6.60">
        <vehicle id="oncoming1" x="54.29" y="1.65" angle="270.00" type="DEFAULT_VEHTYPE" speed="13.67" pos="145.71" lane="-VODUGES_beg_0" slope="0.00"/>
        <vehicle id="oncoming2" x="154.34" y="1.65" angle="270.00" type="DEFAULT_VEHTYPE" speed="13.34" pos="45.66" lane="-VODUGES_beg_0" slope="0.00"/>
        <vehicle id="overtaking" x="36.74" y="-1.65" angle="90.00" type="DEFAULT_VEHTYPE" speed="5.56" pos="36.74" lane="VODUGES_beg_0" slope="0.00"/>
        <vehicle id="stopped" x="50.00" y="-1.65" angle="90.00" type="DEFAULT_VEHTYPE" speed="0.00" pos="50.00" lane="VODUGES_beg_0" slope="0.00"/>
    </timestep>
    <timestep time="6.80">
        <vehicle id="oncoming1" x="51.55" y="1.65" angle="270.00" type="DEFAULT_VEHTYPE" speed="13.79" pos="148.45" lane="-VODUGES_beg_0" slope="0.00"/>
        <vehicle id="oncoming2" x="151.63" y="1.65" angle="270.00" type="DEFAULT_VEHTYPE" speed="13.69" pos="48.37" lane="-VODUGES_beg_0" slope="0.00"/>
        <vehicle id="overtaking" x="37.80" y="-1.65" angle="90.00" type="DEFAULT_VEHTYPE" speed="5.06" pos="37.80" lane="VODUGES_beg_0" slope="0.00"/>
        <vehicle id="stopped" x="50.00" y="-1.65" angle="90.00" type="DEFAULT_VEHTYPE" speed="0.00" pos="50.00" lane="VODUGES_beg_0" slope="0.00"/>
    </timestep>
    <timestep time="7.00">
        <vehicle id="oncoming1" x="48.78" y="1.65" angle="270.00" type="DEFAULT_VEHTYPE" speed="13.86" pos="151.22" lane="-VODUGES_beg_0" slope="0.00"/>
        <vehicle id="oncoming2" x="148.90" y="1.65" angle="270.00" type="DEFAULT_VEHTYPE" speed="13.67" pos="51.10" lane="-VODUGES_beg_0" slope="0.00"/>
        <vehicle id="overtaking" x="38.75" y="-1.65" angle="90.00" type="DEFAULT_VEHTYPE" speed="4.44" pos="38.75" lane="VODUGES_beg_0" slope="0.00"/>
        <vehicle id="stopped" x="50.00" y="-1.65" angle="90.00" type="DEFAULT_VEHTYPE" speed="0.00" pos="50.00" lane="VODUGES_beg_0" slope="0.00"/>
    </timestep>
    <timestep time="7.20">
        <vehicle id="oncoming1" x="46.03" y="1.65" angle="270.00" type="DEFAULT_VEHTYPE" speed="13.64" pos="153.97" lane="-VODUGES_beg_0" slope="0.00"/>
        <vehicle id="oncoming2" x="146.15" y="1.65" angle="270.00" type="DEFAULT_VEHTYPE" speed="13.75" pos="53.85" lane="-VODUGES_beg_0" slope="0.00"/>
        <vehicle id="overtaking" x="39.57" y="-1.65" angle="90.00" type="DEFAULT_VEHTYPE" speed="3.75" pos="39.57" lane="VODUGES_beg_0" slope="0.00"/>
        <vehicle id="stopped" x="50.00" y="-1.65" angle="90.00" type="DEFAULT_VEHTYPE" speed="0.00" pos="50.00" lane="VODUGES_beg_0" slope="0.00"/>
    </timestep>
    <timestep time="7.40">
        <vehicle id="oncoming1" x="43.30" y="1.65" angle="270.00" type="DEFAULT_VEHTYPE" speed="13.66" pos="156.70" lane="-VODUGES_beg_0" slope="0.00"/>
        <vehicle id="oncoming2" x="143.40" y="1.65" angle="270.00" type="DEFAULT_VEHTYPE" speed="13.76" pos="56.60" lane="-VODUGES_beg_0" slope="0.00"/>
        <vehicle id="overtaking" x="40.25" y="-1.65" angle="90.00" type="DEFAULT_VEHTYPE" speed="3.06" pos="40.25" lane="VODUGES_beg_0" slope="0.00"/>
        <vehicle id="stopped" x="50.00" y="-1.65" angle="90.00" type="DEFAULT_VEHTYPE" speed="0.00" pos="50.00" lane="VODUGES_beg_0" slope="0.00"/>
    </timestep>
    <timestep time="7.60">
        <vehicle id="oncoming1" x="40.55" y="1.65" angle="270.00" type="DEFAULT_VEHTYPE" speed="13.80" pos="159.45" lane="-VODUGES_beg_0" slope="0.00"/>
        <vehicle id="oncoming2" x="140.66" y="1.65" angle="270.00" type="DEFAULT_VEHTYPE" speed="13.68" pos="59.34" lane="-VODUGES_beg_0" slope="0.00"/>
        <vehicle id="overtaking" x="40.82" y="-1.65" angle="90.00" type="DEFAULT_VEHTYPE" speed="2.63" pos="40.82" lane="VODUGES_beg_0" slope="0.00"/>
        <vehicle id="stopped" x="50.00" y="-1.65" angle="90.00" type="DEFAULT_VEHTYPE" speed="0.00" pos="50.00" lane="VODUGES_beg_0" slope="0.00"/>
    </timestep>
    <timestep time="7.80">
        <vehicle id="oncoming1" x="37.79" y="1.65" angle="270.00" type="DEFAULT_VEHTYPE" speed="13.89" pos="162.21" lane="-VODUGES_beg_0" slope="0.00"/>
        <vehicle id="oncoming2" x="137.92" y="1.65" angle="270.00" type="DEFAULT_VEHTYPE" speed="13.72" pos="62.08" lane="-VODUGES_beg_0" slope="0.00"/>
        <vehicle id="overtaking" x="41.30" y="-1.65" angle="90.00" type="DEFAULT_VEHTYPE" speed="2.16" pos="41.30" lane="VODUGES_beg_0" slope="0.00"/>
        <vehicle id="stopped" x="50.00" y="-1.65" angle="90.00" type="DEFAULT_VEHTYPE" speed="0.00" pos="50.00" lane="VODUGES_beg_0" slope="0.00"/>
    </timestep>
    <timestep time="8.00">
        <vehicle id="oncoming1" x="35.02" y="1.65" angle="270.00" type="DEFAULT_VEHTYPE" speed="13.76" pos="164.98" lane="-VODUGES_beg_0" slope="0.00"/>
        <vehicle id="oncoming2" x="135.18" y="1.65" angle="270.00" type="DEFAULT_VEHTYPE" speed="13.65" pos="64.82" lane="-VODUGES_beg_0" slope="0.00"/>
        <vehicle id="overtaking" x="41.69" y="-1.65" angle="90.00" type="DEFAULT_VEHTYPE" speed="1.77" pos="41.69" lane="VODUGES_beg_0" slope="0.00"/>
        <vehicle id="stopped" x="50.00" y="-1.65" angle="90.00" type="DEFAULT_VEHTYPE" speed="0.00" pos="50.00" lane="VODUGES_beg_0" slope="0.00"/>
    </timestep>
    <timestep time="8.20">
        <vehicle id="oncoming1" x="32.28" y="1.65" angle="270.00" type="DEFAULT_VEHTYPE" speed="13.67" pos="167.72" lane="-VODUGES_beg_0" slope="0.00"/>
        <vehicle id="oncoming2" x="132.45" y="1.65" angle="270.00" type="DEFAULT_VEHTYPE" speed="13.68" pos="67.55" lane="-VODUGES_beg_0" slope="0.00"/>
        <vehicle id="overtaking" x="42.01" y="-1.65" angle="90.00" type="DEFAULT_VEHTYPE" speed="1.37" pos="42.01" lane="VODUGES_beg_0" slope="0.00"/>
        <vehicle id="stopped" x="50.00" y="-1.65" angle="90.00" type="DEFAULT_VEHTYPE" speed="0.00" pos="50.00" lane="VODUGES_beg_0" slope="0.00"/>
    </timestep>
    <timestep time="8.40">
        <vehicle id="oncoming1" x="29.53" y="1.65" angle="270.00" type="DEFAULT_VEHTYPE" speed="13.76" pos="170.47" lane="-VODUGES_beg_0" slope="0.00"/>
        <vehicle id="oncoming2" x="129.72" y="1.65" angle="270.00" type="DEFAULT_VEHTYPE" speed="13.65" pos="70.28" lane="-VODUGES_beg_0" slope="0.00"/>
        <vehicle id="overtaking" x="42.23" y="-1.65" angle="90.00" type="DEFAULT_VEHTYPE" speed="0.89" pos="42.23" lane="VODUGES_beg_0" slope="0.00"/>
        <vehicle id="stopped" x="50.00" y="-1.65" angle="90.00" type="DEFAULT_VEHTYPE" speed="0.00" pos="50.00" lane="VODUGES_beg_0" slope="0.00"/>
    </timestep>
    <timestep time="8.60">
        <vehicle id="oncoming1" x="26.79" y="1.65" angle="270.00" type="DEFAULT_VEHTYPE" speed="13.67" pos="173.21" lane="-VODUGES_beg_0" slope="0.00"/>
        <vehicle id="oncoming2" x="126.97" y="1.65" angle="270.00" type="DEFAULT_VEHTYPE" speed="13.80" pos="73.03" lane="-VODUGES_beg_0" slope="0.00"/>
        <vehicle id="overtaking" x="42.38" y="-1.65" angle="90.00" type="DEFAULT_VEHTYPE" speed="0.57" pos="42.38" lane="VODUGES_beg_0" slope="0.00"/>
        <vehicle id="stopped" x="50.00" y="-1.65" angle="90.00" type="DEFAULT_VEHTYPE" speed="0.00" pos="50.00" lane="VODUGES_beg_0" slope="0.00"/>
    </timestep>
    <timestep time="8.80">
        <vehicle id="oncoming1" x="24.05" y="1.65" angle="270.00" type="DEFAULT_VEHTYPE" speed="13.77" pos="175.95" lane="-VODUGES_beg_0" slope="0.00"/>
        <vehicle id="oncoming2" x="124.21" y="1.65" angle="270.00" type="DEFAULT_VEHTYPE" speed="13.81" pos="75.79" lane="-VODUGES_beg_0" slope="0.00"/>
        <vehicle id="overtaking" x="42.46" y="-1.65" angle="90.00" type="DEFAULT_VEHTYPE" speed="0.30" pos="42.46" lane="VODUGES_beg_0" slope="0.00"/>
        <vehicle id="stopped" x="50.00" y="-1.65" angle="90.00" type="DEFAULT_VEHTYPE" speed="0.00" pos="50.00" lane="VODUGES_beg_0" slope="0.00"/>
    </timestep>