<?xml version="1.0" encoding="UTF-8"?>

<!-- generated on Thu Feb 25 12:26:26 2016 by SUMO Version dev-SVN-r20072
<?xml version="1.0" encoding="UTF-8"?>

<configuration xmlns:xsi="http://www.w3.org/2001/XMLSchema-instance" xsi:noNamespaceSchemaLocation="http://sumo.dlr.de/xsd/sumoConfiguration.xsd">

    <input>
        <net-file value="net.net.xml"/>
        <route-files value="input_routes.rou.xml"/>
    </input>

    <output>
        <fcd-output value="fcd.xml"/>
        <tripinfo-output value="tripinfos.xml"/>
    </output>

    <processing>
        <lateral-resolution value="0.8"/>
    </processing>

    <report>
        <xml-validation value="never"/>
        <no-step-log value="true"/>
    </report>

</configuration>
-->

<fcd-export xmlns:xsi="http://www.w3.org/2001/XMLSchema-instance" xsi:noNamespaceSchemaLocation="http://sumo.dlr.de/xsd/fcd_file.xsd">
    <timestep time="0.00">
        <vehicle id="A" x="0.00" y="-6.15" angle="90.00" type="t0" speed="13.89" pos="0.00" lane="beg_0" slope="0.00"/>
        <vehicle id="B" x="0.00" y="-2.05" angle="90.00" type="t1" speed="13.89" pos="0.00" lane="beg_1" slope="0.00"/>
    </timestep>
    <timestep time="1.00">
        <vehicle id="A" x="13.79" y="-5.15" angle="90.00" type="t0" speed="13.89" pos="13.89" lane="beg_0" slope="0.00"/>
        <vehicle id="B" x="13.79" y="-2.05" angle="90.00" type="t1" speed="13.89" pos="13.89" lane="beg_1" slope="0.00"/>
    </timestep>
    <timestep time="2.00">
        <vehicle id="A" x="27.57" y="-5.15" angle="90.00" type="t0" speed="13.89" pos="27.78" lane="beg_0" slope="0.00"/>
        <vehicle id="B" x="27.57" y="-2.05" angle="90.00" type="t1" speed="13.89" pos="27.78" lane="beg_1" slope="0.00"/>
    </timestep>
    <timestep time="3.00">
        <vehicle id="A" x="37.50" y="-5.15" angle="90.00" type="t0" speed="10.00" pos="37.78" lane="beg_0" slope="0.00"/>
        <vehicle id="B" x="41.36" y="-2.05" angle="90.00" type="t1" speed="13.89" pos="41.67" lane="beg_1" slope="0.00"/>
    </timestep>
    <timestep time="4.00">
        <vehicle id="A" x="43.56" y="-4.15" angle="90.00" type="t0" speed="6.11" pos="43.89" lane="beg_0" slope="0.00"/>
        <vehicle id="B" x="55.14" y="-2.05" angle="90.00" type="t1" speed="13.89" pos="55.56" lane="beg_1" slope="0.00"/>
    </timestep>
    <timestep time="5.00">
        <vehicle id="A" x="52.21" y="-3.15" angle="90.00" type="t0" speed="8.71" pos="52.61" lane="beg_1" slope="0.00"/>
        <vehicle id="B" x="68.93" y="-2.05" angle="90.00" type="t1" speed="13.89" pos="69.45" lane="beg_1" slope="0.00"/>
    </timestep>
    <timestep time="6.00">
        <vehicle id="A" x="63.44" y="-2.15" angle="90.00" type="t0" speed="11.31" pos="63.92" lane="beg_1" slope="0.00"/>
        <vehicle id="B" x="82.71" y="-2.05" angle="90.00" type="t1" speed="13.89" pos="83.34" lane="beg_1" slope="0.00"/>
    </timestep>
    <timestep time="7.00">
        <vehicle id="A" x="76.70" y="-2.05" angle="90.00" type="t0" speed="13.36" pos="77.28" lane="beg_1" slope="0.00"/>
        <vehicle id="B" x="96.50" y="-2.05" angle="90.00" type="t1" speed="13.89" pos="97.23" lane="beg_1" slope="0.00"/>
    </timestep>
    <timestep time="8.00">
        <vehicle id="A" x="90.13" y="-2.05" angle="90.00" type="t0" speed="13.53" pos="90.81" lane="beg_1" slope="0.00"/>
        <vehicle id="B" x="110.29" y="-2.05" angle="90.00" type="t1" speed="13.89" pos="111.12" lane="beg_1" slope="0.00"/>
    </timestep>
    <timestep time="9.00">
        <vehicle id="A" x="103.65" y="-2.05" angle="90.00" type="t0" speed="13.62" pos="104.43" lane="beg_1" slope="0.00"/>
        <vehicle id="B" x="124.07" y="-2.05" angle="90.00" type="t1" speed="13.89" pos="125.01" lane="beg_1" slope="0.00"/>
    </timestep>
    <timestep time="10.00">
        <vehicle id="A" x="117.23" y="-2.05" angle="90.00" type="t0" speed="13.69" pos="118.12" lane="beg_1" slope="0.00"/>
        <vehicle id="B" x="137.86" y="-2.05" angle="90.00" type="t1" speed="13.89" pos="138.90" lane="beg_1" slope="0.00"/>
    </timestep>
    <timestep time="11.00">
        <vehicle id="A" x="130.87" y="-2.05" angle="90.00" type="t0" speed="13.74" pos="131.86" lane="beg_1" slope="0.00"/>
        <vehicle id="B" x="151.64" y="-2.05" angle="90.00" type="t1" speed="13.89" pos="152.79" lane="beg_1" slope="0.00"/>
    </timestep>
    <timestep time="12.00">
        <vehicle id="A" x="144.54" y="-2.05" angle="90.00" type="t0" speed="13.78" pos="145.63" lane="beg_1" slope="0.00"/>
        <vehicle id="B" x="165.43" y="-2.05" angle="90.00" type="t1" speed="13.89" pos="166.68" lane="beg_1" slope="0.00"/>
    </timestep>
    <timestep time="13.00">
        <vehicle id="A" x="158.24" y="-2.05" angle="90.00" type="t0" speed="13.80" pos="159.44" lane="beg_1" slope="0.00"/>
        <vehicle id="B" x="179.22" y="-2.05" angle="90.00" type="t1" speed="13.89" pos="180.57" lane="beg_1" slope="0.00"/>
    </timestep>
    <timestep time="14.00">
        <vehicle id="A" x="171.96" y="-2.05" angle="90.00" type="t0" speed="13.83" pos="173.26" lane="beg_1" slope="0.00"/>
        <vehicle id="B" x="193.00" y="-2.05" angle="90.00" type="t1" speed="13.89" pos="194.46" lane="beg_1" slope="0.00"/>
    </timestep>
    <timestep time="15.00">
        <vehicle id="A" x="185.70" y="-2.05" angle="90.00" type="t0" speed="13.84" pos="187.10" lane="beg_1" slope="0.00"/>
        <vehicle id="B" x="209.72" y="-2.05" angle="90.00" type="t1" speed="13.89" pos="8.35" lane="end_0" slope="0.00"/>
    </timestep>
    <timestep time="16.00">
        <vehicle id="A" x="202.44" y="-2.05" angle="90.00" type="t0" speed="13.85" pos="0.96" lane="end_0" slope="0.00"/>
        <vehicle id="B" x="223.41" y="-2.05" angle="90.00" type="t1" speed="13.89" pos="22.24" lane="end_0" slope="0.00"/>
    </timestep>
    <timestep time="17.00">
        <vehicle id="A" x="216.10" y="-2.05" angle="90.00" type="t0" speed="13.86" pos="14.82" lane="end_0" slope="0.00"/>
        <vehicle id="B" x="237.09" y="-2.05" angle="90.00" type="t1" speed="13.89" pos="36.13" lane="end_0" slope="0.00"/>
    </timestep>
    <timestep time="18.00">
        <vehicle id="A" x="229.76" y="-2.05" angle="90.00" type="t0" speed="13.87" pos="28.69" lane="end_0" slope="0.00"/>
        <vehicle id="B" x="250.77" y="-2.05" angle="90.00" type="t1" speed="13.89" pos="50.02" lane="end_0" slope="0.00"/>
    </timestep>
    <timestep time="19.00">
        <vehicle id="A" x="243.43" y="-2.05" angle="90.00" type="t0" speed="13.87" pos="42.56" lane="end_0" slope="0.00"/>
        <vehicle id="B" x="264.45" y="-2.05" angle="90.00" type="t1" speed="13.89" pos="63.91" lane="end_0" slope="0.00"/>
    </timestep>
    <timestep time="20.00">
        <vehicle id="A" x="257.10" y="-2.05" angle="90.00" type="t0" speed="13.88" pos="56.44" lane="end_0" slope="0.00"/>
        <vehicle id="B" x="278.13" y="-2.05" angle="90.00" type="t1" speed="13.89" pos="77.80" lane="end_0" slope="0.00"/>
    </timestep>
    <timestep time="21.00">
        <vehicle id="A" x="270.77" y="-2.05" angle="90.00" type="t0" speed="13.88" pos="70.32" lane="end_0" slope="0.00"/>
        <vehicle id="B" x="291.81" y="-2.05" angle="90.00" type="t1" speed="13.89" pos="91.69" lane="end_0" slope="0.00"/>
    </timestep>
    <timestep time="22.00">
        <vehicle id="A" x="284.45" y="-2.05" angle="90.00" type="t0" speed="13.88" pos="84.21" lane="end_0" slope="0.00"/>
    </timestep>
    <timestep time="23.00">
        <vehicle id="A" x="298.13" y="-2.05" angle="90.00" type="t0" speed="13.89" pos="98.10" lane="end_0" slope="0.00"/>
    </timestep>
    <timestep time="24.00"/>
</fcd-export>
