<?xml version="1.0" encoding="UTF-8"?>

<!-- generated on Thu May 12 15:21:58 2016 by SUMO Version dev-SVN-r20713
<?xml version="1.0" encoding="UTF-8"?>

<configuration xmlns:xsi="http://www.w3.org/2001/XMLSchema-instance" xsi:noNamespaceSchemaLocation="http://sumo.dlr.de/xsd/sumoConfiguration.xsd">

    <input>
        <net-file value="net.net.xml"/>
        <route-files value="input_routes.rou.xml"/>
        <additional-files value="input_additional.add.xml"/>
    </input>

    <output>
        <fcd-output value="fcd.xml"/>
    </output>

    <time>
        <step-length value="0.5"/>
    </time>

    <processing>
        <lanechange.duration value="12"/>
    </processing>

    <report>
        <xml-validation value="never"/>
        <duration-log.disable value="true"/>
        <no-step-log value="true"/>
    </report>

</configuration>
-->

<fcd-export xmlns:xsi="http://www.w3.org/2001/XMLSchema-instance" xsi:noNamespaceSchemaLocation="http://sumo.dlr.de/xsd/fcd_file.xsd">
    <timestep time="0.00">
        <vehicle id="v0" x="256.60" y="495.05" angle="90.00" type="DEFAULT_VEHTYPE" speed="0.00" pos="5.10" lane="1si_0" slope="0.00"/>
    </timestep>
    <timestep time="0.50">
        <vehicle id="v0" x="256.93" y="495.05" angle="90.00" type="DEFAULT_VEHTYPE" speed="1.30" pos="5.42" lane="1si_0" slope="0.00"/>
    </timestep>
    <timestep time="1.00">
        <vehicle id="v0" x="257.90" y="495.05" angle="90.00" type="DEFAULT_VEHTYPE" speed="2.60" pos="6.40" lane="1si_0" slope="0.00"/>
    </timestep>
    <timestep time="1.50">
        <vehicle id="v0" x="259.52" y="495.05" angle="90.00" type="DEFAULT_VEHTYPE" speed="3.90" pos="8.03" lane="1si_0" slope="0.00"/>
    </timestep>
    <timestep time="2.00">
        <vehicle id="v0" x="261.80" y="495.05" angle="90.00" type="DEFAULT_VEHTYPE" speed="5.20" pos="10.30" lane="1si_0" slope="0.00"/>
    </timestep>
    <timestep time="2.50">
        <vehicle id="v0" x="264.73" y="495.05" angle="90.00" type="DEFAULT_VEHTYPE" speed="6.50" pos="13.23" lane="1si_0" slope="0.00"/>
    </timestep>
    <timestep time="3.00">
        <vehicle id="v0" x="268.30" y="495.05" angle="90.00" type="DEFAULT_VEHTYPE" speed="7.80" pos="16.80" lane="1si_0" slope="0.00"/>
    </timestep>
    <timestep time="3.50">
        <vehicle id="v0" x="272.52" y="495.05" angle="90.00" type="DEFAULT_VEHTYPE" speed="9.10" pos="21.02" lane="1si_0" slope="0.00"/>
    </timestep>
    <timestep time="4.00">
        <vehicle id="v0" x="277.40" y="495.05" angle="90.00" type="DEFAULT_VEHTYPE" speed="10.40" pos="25.90" lane="1si_0" slope="0.00"/>
    </timestep>
    <timestep time="4.50">
        <vehicle id="v0" x="282.93" y="495.05" angle="90.00" type="DEFAULT_VEHTYPE" speed="11.70" pos="31.42" lane="1si_0" slope="0.00"/>
    </timestep>
    <timestep time="5.00">
        <vehicle id="v0" x="289.10" y="495.05" angle="90.00" type="DEFAULT_VEHTYPE" speed="13.00" pos="37.60" lane="1si_0" slope="0.00"/>
    </timestep>
    <timestep time="5.50">
        <vehicle id="v0" x="295.82" y="495.05" angle="90.00" type="DEFAULT_VEHTYPE" speed="13.89" pos="44.32" lane="1si_0" slope="0.00"/>
    </timestep>
    <timestep time="6.00">
        <vehicle id="v0" x="302.77" y="495.05" angle="90.00" type="DEFAULT_VEHTYPE" speed="13.89" pos="51.27" lane="1si_0" slope="0.00"/>
    </timestep>
    <timestep time="6.50">
        <vehicle id="v0" x="309.71" y="495.05" angle="90.00" type="DEFAULT_VEHTYPE" speed="13.89" pos="58.21" lane="1si_0" slope="0.00"/>
    </timestep>
    <timestep time="7.00">
        <vehicle id="v0" x="316.66" y="495.05" angle="90.00" type="DEFAULT_VEHTYPE" speed="13.89" pos="65.16" lane="1si_0" slope="0.00"/>
    </timestep>
    <timestep time="7.50">
        <vehicle id="v0" x="323.60" y="495.05" angle="90.00" type="DEFAULT_VEHTYPE" speed="13.89" pos="72.10" lane="1si_0" slope="0.00"/>
    </timestep>
    <timestep time="8.00">
        <vehicle id="v0" x="330.55" y="495.05" angle="90.00" type="DEFAULT_VEHTYPE" speed="13.89" pos="79.05" lane="1si_0" slope="0.00"/>
    </timestep>
    <timestep time="8.50">
        <vehicle id="v0" x="337.49" y="495.05" angle="90.00" type="DEFAULT_VEHTYPE" speed="13.89" pos="85.99" lane="1si_0" slope="0.00"/>
    </timestep>
    <timestep time="9.00">
        <vehicle id="v0" x="344.44" y="495.05" angle="90.00" type="DEFAULT_VEHTYPE" speed="13.89" pos="92.94" lane="1si_0" slope="0.00"/>
    </timestep>
    <timestep time="9.50">
        <vehicle id="v0" x="351.38" y="495.05" angle="90.00" type="DEFAULT_VEHTYPE" speed="13.89" pos="99.88" lane="1si_0" slope="0.00"/>
    </timestep>
    <timestep time="10.00">
        <vehicle id="v0" x="358.33" y="495.05" angle="90.00" type="DEFAULT_VEHTYPE" speed="13.89" pos="106.83" lane="1si_0" slope="0.00"/>
    </timestep>
    <timestep time="10.50">
        <vehicle id="v0" x="365.27" y="495.05" angle="90.00" type="DEFAULT_VEHTYPE" speed="13.89" pos="113.77" lane="1si_0" slope="0.00"/>
    </timestep>
    <timestep time="11.00">
        <vehicle id="v0" x="372.22" y="495.05" angle="90.00" type="DEFAULT_VEHTYPE" speed="13.89" pos="120.72" lane="1si_0" slope="0.00"/>
    </timestep>
    <timestep time="11.50">
        <vehicle id="v0" x="379.16" y="495.05" angle="90.00" type="DEFAULT_VEHTYPE" speed="13.89" pos="127.66" lane="1si_0" slope="0.00"/>
    </timestep>
    <timestep time="12.00">
        <vehicle id="v0" x="386.11" y="495.05" angle="90.00" type="DEFAULT_VEHTYPE" speed="13.89" pos="134.61" lane="1si_0" slope="0.00"/>
    </timestep>
    <timestep time="12.50">
        <vehicle id="v0" x="393.05" y="495.05" angle="90.00" type="DEFAULT_VEHTYPE" speed="13.89" pos="141.55" lane="1si_0" slope="0.00"/>
    </timestep>
    <timestep time="13.00">
        <vehicle id="v0" x="400.00" y="495.05" angle="90.00" type="DEFAULT_VEHTYPE" speed="13.89" pos="148.50" lane="1si_0" slope="0.00"/>
    </timestep>
    <timestep time="13.50">
        <vehicle id="v0" x="406.94" y="495.05" angle="90.00" type="DEFAULT_VEHTYPE" speed="13.89" pos="155.44" lane="1si_0" slope="0.00"/>
    </timestep>
    <timestep time="14.00">
        <vehicle id="v0" x="413.89" y="495.05" angle="90.00" type="DEFAULT_VEHTYPE" speed="13.89" pos="162.39" lane="1si_0" slope="0.00"/>
    </timestep>
    <timestep time="14.50">
        <vehicle id="v0" x="420.83" y="495.05" angle="90.00" type="DEFAULT_VEHTYPE" speed="13.89" pos="169.33" lane="1si_0" slope="0.00"/>
    </timestep>
    <timestep time="15.00">
        <vehicle id="v0" x="427.78" y="495.05" angle="90.00" type="DEFAULT_VEHTYPE" speed="13.89" pos="176.28" lane="1si_0" slope="0.00"/>
    </timestep>
    <timestep time="15.50">
        <vehicle id="v0" x="434.72" y="495.05" angle="90.00" type="DEFAULT_VEHTYPE" speed="13.89" pos="183.22" lane="1si_0" slope="0.00"/>
    </timestep>
    <timestep time="16.00">
        <vehicle id="v0" x="441.67" y="495.05" angle="90.00" type="DEFAULT_VEHTYPE" speed="13.89" pos="190.17" lane="1si_0" slope="0.00"/>
    </timestep>
    <timestep time="16.50">
        <vehicle id="v0" x="448.61" y="495.18" angle="89.79" type="DEFAULT_VEHTYPE" speed="13.89" pos="197.11" lane="1si_0" slope="0.00"/>
    </timestep>
    <timestep time="17.00">
        <vehicle id="v0" x="455.56" y="495.32" angle="89.58" type="DEFAULT_VEHTYPE" speed="13.89" pos="204.06" lane="1si_0" slope="0.00"/>
    </timestep>
    <timestep time="17.50">
        <vehicle id="v0" x="462.35" y="495.45" angle="89.38" type="DEFAULT_VEHTYPE" speed="13.27" pos="210.85" lane="1si_0" slope="0.00"/>
    </timestep>
    <timestep time="18.00">
        <vehicle id="v0" x="468.51" y="495.58" angle="89.17" type="DEFAULT_VEHTYPE" speed="11.37" pos="217.01" lane="1si_0" slope="0.00"/>
    </timestep>
    <timestep time="18.50">
        <vehicle id="v0" x="473.73" y="495.72" angle="88.96" type="DEFAULT_VEHTYPE" speed="9.52" pos="222.23" lane="1si_0" slope="0.00"/>
    </timestep>
    <timestep time="19.00">
        <vehicle id="v0" x="478.04" y="495.85" angle="88.75" type="DEFAULT_VEHTYPE" speed="7.73" pos="226.54" lane="1si_0" slope="0.00"/>
    </timestep>
    <timestep time="19.50">
        <vehicle id="v0" x="481.48" y="495.98" angle="88.54" type="DEFAULT_VEHTYPE" speed="6.04" pos="229.98" lane="1si_0" slope="0.00"/>
    </timestep>
    <timestep time="20.00">
        <vehicle id="v0" x="484.11" y="496.12" angle="88.33" type="DEFAULT_VEHTYPE" speed="4.46" pos="232.61" lane="1si_0" slope="0.00"/>
    </timestep>
    <timestep time="20.50">
        <vehicle id="v0" x="485.99" y="496.25" angle="88.12" type="DEFAULT_VEHTYPE" speed="3.05" pos="234.49" lane="1si_0" slope="0.00"/>
    </timestep>
    <timestep time="21.00">
        <vehicle id="v0" x="487.84" y="496.38" angle="87.92" type="DEFAULT_VEHTYPE" speed="4.35" pos="236.34" lane="1si_0" slope="0.00"/>
    </timestep>
    <timestep time="21.50">
        <vehicle id="v0" x="490.34" y="496.52" angle="87.71" type="DEFAULT_VEHTYPE" speed="5.65" pos="1.69" lane=":0_15_0" slope="0.00"/>
    </timestep>
    <timestep time="22.00">
        <vehicle id="v0" x="493.49" y="496.75" angle="87.50" type="DEFAULT_VEHTYPE" speed="6.95" pos="4.84" lane=":0_15_1" slope="0.00"/>
    </timestep>
    <timestep time="22.50">
        <vehicle id="v0" x="497.29" y="496.88" angle="87.71" type="DEFAULT_VEHTYPE" speed="8.25" pos="8.64" lane=":0_15_1" slope="0.00"/>
    </timestep>
    <timestep time="23.00">
        <vehicle id="v0" x="501.75" y="497.02" angle="87.92" type="DEFAULT_VEHTYPE" speed="9.55" pos="13.10" lane=":0_15_1" slope="0.00"/>
    </timestep>
    <timestep time="23.50">
        <vehicle id="v0" x="506.85" y="497.15" angle="88.12" type="DEFAULT_VEHTYPE" speed="10.85" pos="18.20" lane=":0_15_1" slope="0.00"/>
    </timestep>
    <timestep time="24.00">
        <vehicle id="v0" x="512.34" y="497.28" angle="88.33" type="DEFAULT_VEHTYPE" speed="11.11" pos="0.99" lane="2o_1" slope="0.00"/>
    </timestep>
    <timestep time="24.50">
        <vehicle id="v0" x="517.89" y="497.42" angle="88.54" type="DEFAULT_VEHTYPE" speed="11.11" pos="6.54" lane="2o_1" slope="0.00"/>
    </timestep>
    <timestep time="25.00">
        <vehicle id="v0" x="523.45" y="497.55" angle="88.75" type="DEFAULT_VEHTYPE" speed="11.11" pos="12.10" lane="2o_1" slope="0.00"/>
    </timestep>
    <timestep time="25.50">
        <vehicle id="v0" x="529.00" y="497.68" angle="88.96" type="DEFAULT_VEHTYPE" speed="11.11" pos="17.65" lane="2o_1" slope="0.00"/>
    </timestep>
    <timestep time="26.00">
        <vehicle id="v0" x="534.56" y="497.82" angle="89.17" type="DEFAULT_VEHTYPE" speed="11.11" pos="23.21" lane="2o_1" slope="0.00"/>
    </timestep>
    <timestep time="26.50">
        <vehicle id="v0" x="540.11" y="497.95" angle="89.38" type="DEFAULT_VEHTYPE" speed="11.11" pos="28.76" lane="2o_1" slope="0.00"/>
    </timestep>
    <timestep time="27.00">
        <vehicle id="v0" x="545.67" y="498.08" angle="89.58" type="DEFAULT_VEHTYPE" speed="11.11" pos="34.32" lane="2o_1" slope="0.00"/>
    </timestep>
    <timestep time="27.50">
        <vehicle id="v0" x="551.22" y="498.22" angle="89.79" type="DEFAULT_VEHTYPE" speed="11.11" pos="39.87" lane="2o_1" slope="0.00"/>
    </timestep>
    <timestep time="28.00">
        <vehicle id="v0" x="556.78" y="498.35" angle="90.00" type="DEFAULT_VEHTYPE" speed="11.11" pos="45.43" lane="2o_1" slope="0.00"/>
    </timestep>
    <timestep time="28.50">
        <vehicle id="v0" x="562.33" y="498.35" angle="90.00" type="DEFAULT_VEHTYPE" speed="11.11" pos="50.98" lane="2o_1" slope="0.00"/>
    </timestep>
    <timestep time="29.00">
        <vehicle id="v0" x="567.89" y="498.35" angle="90.00" type="DEFAULT_VEHTYPE" speed="11.11" pos="56.54" lane="2o_1" slope="0.00"/>
    </timestep>
    <timestep time="29.50">
        <vehicle id="v0" x="573.44" y="498.35" angle="90.00" type="DEFAULT_VEHTYPE" speed="11.11" pos="62.09" lane="2o_1" slope="0.00"/>
    </timestep>
    <timestep time="30.00">
        <vehicle id="v0" x="579.00" y="498.35" angle="90.00" type="DEFAULT_VEHTYPE" speed="11.11" pos="67.65" lane="2o_1" slope="0.00"/>
    </timestep>
    <timestep time="30.50">
        <vehicle id="v0" x="584.55" y="498.35" angle="90.00" type="DEFAULT_VEHTYPE" speed="11.11" pos="73.20" lane="2o_1" slope="0.00"/>
    </timestep>
    <timestep time="31.00">
        <vehicle id="v0" x="590.11" y="498.35" angle="90.00" type="DEFAULT_VEHTYPE" speed="11.11" pos="78.76" lane="2o_1" slope="0.00"/>
    </timestep>
    <timestep time="31.50">
        <vehicle id="v0" x="595.66" y="498.35" angle="90.00" type="DEFAULT_VEHTYPE" speed="11.11" pos="84.31" lane="2o_1" slope="0.00"/>
    </timestep>
    <timestep time="32.00">
        <vehicle id="v0" x="601.22" y="498.35" angle="90.00" type="DEFAULT_VEHTYPE" speed="11.11" pos="89.87" lane="2o_1" slope="0.00"/>
    </timestep>
    <timestep time="32.50">
        <vehicle id="v0" x="606.77" y="498.35" angle="90.00" type="DEFAULT_VEHTYPE" speed="11.11" pos="95.42" lane="2o_1" slope="0.00"/>
    </timestep>
    <timestep time="33.00">
        <vehicle id="v0" x="612.33" y="498.35" angle="90.00" type="DEFAULT_VEHTYPE" speed="11.11" pos="100.98" lane="2o_1" slope="0.00"/>
    </timestep>
    <timestep time="33.50">
        <vehicle id="v0" x="617.88" y="498.35" angle="90.00" type="DEFAULT_VEHTYPE" speed="11.11" pos="106.53" lane="2o_1" slope="0.00"/>
    </timestep>
    <timestep time="34.00">
        <vehicle id="v0" x="623.44" y="498.35" angle="90.00" type="DEFAULT_VEHTYPE" speed="11.11" pos="112.09" lane="2o_1" slope="0.00"/>
    </timestep>
    <timestep time="34.50">
        <vehicle id="v0" x="628.99" y="498.35" angle="90.00" type="DEFAULT_VEHTYPE" speed="11.11" pos="117.64" lane="2o_1" slope="0.00"/>
    </timestep>
    <timestep time="35.00">
        <vehicle id="v0" x="634.55" y="498.35" angle="90.00" type="DEFAULT_VEHTYPE" speed="11.11" pos="123.20" lane="2o_1" slope="0.00"/>
    </timestep>
    <timestep time="35.50">
        <vehicle id="v0" x="640.10" y="498.35" angle="90.00" type="DEFAULT_VEHTYPE" speed="11.11" pos="128.75" lane="2o_1" slope="0.00"/>
    </timestep>
    <timestep time="36.00">
        <vehicle id="v0" x="645.66" y="498.35" angle="90.00" type="DEFAULT_VEHTYPE" speed="11.11" pos="134.31" lane="2o_1" slope="0.00"/>
    </timestep>
    <timestep time="36.50">
        <vehicle id="v0" x="651.21" y="498.35" angle="90.00" type="DEFAULT_VEHTYPE" speed="11.11" pos="139.86" lane="2o_1" slope="0.00"/>
    </timestep>
    <timestep time="37.00">
        <vehicle id="v0" x="656.77" y="498.35" angle="90.00" type="DEFAULT_VEHTYPE" speed="11.11" pos="145.42" lane="2o_1" slope="0.00"/>
    </timestep>
    <timestep time="37.50">
        <vehicle id="v0" x="662.32" y="498.35" angle="90.00" type="DEFAULT_VEHTYPE" speed="11.11" pos="150.97" lane="2o_1" slope="0.00"/>
    </timestep>
    <timestep time="38.00">
        <vehicle id="v0" x="667.88" y="498.35" angle="90.00" type="DEFAULT_VEHTYPE" speed="11.11" pos="156.53" lane="2o_1" slope="0.00"/>
    </timestep>
    <timestep time="38.50">
        <vehicle id="v0" x="673.43" y="498.35" angle="90.00" type="DEFAULT_VEHTYPE" speed="11.11" pos="162.08" lane="2o_1" slope="0.00"/>
    </timestep>
    <timestep time="39.00">
        <vehicle id="v0" x="678.99" y="498.35" angle="90.00" type="DEFAULT_VEHTYPE" speed="11.11" pos="167.64" lane="2o_1" slope="0.00"/>
    </timestep>
    <timestep time="39.50">
        <vehicle id="v0" x="684.54" y="498.35" angle="90.00" type="DEFAULT_VEHTYPE" speed="11.11" pos="173.19" lane="2o_1" slope="0.00"/>
    </timestep>
    <timestep time="40.00">
        <vehicle id="v0" x="690.10" y="498.35" angle="90.00" type="DEFAULT_VEHTYPE" speed="11.11" pos="178.75" lane="2o_1" slope="0.00"/>
    </timestep>
    <timestep time="40.50">
        <vehicle id="v0" x="695.65" y="498.35" angle="90.00" type="DEFAULT_VEHTYPE" speed="11.11" pos="184.30" lane="2o_1" slope="0.00"/>
    </timestep>
    <timestep time="41.00">
        <vehicle id="v0" x="701.21" y="498.35" angle="90.00" type="DEFAULT_VEHTYPE" speed="11.11" pos="189.86" lane="2o_1" slope="0.00"/>
    </timestep>
    <timestep time="41.50">
        <vehicle id="v0" x="706.76" y="498.35" angle="90.00" type="DEFAULT_VEHTYPE" speed="11.11" pos="195.41" lane="2o_1" slope="0.00"/>
    </timestep>
    <timestep time="42.00">
        <vehicle id="v0" x="712.32" y="498.35" angle="90.00" type="DEFAULT_VEHTYPE" speed="11.11" pos="200.97" lane="2o_1" slope="0.00"/>
    </timestep>
    <timestep time="42.50">
        <vehicle id="v0" x="717.87" y="498.35" angle="90.00" type="DEFAULT_VEHTYPE" speed="11.11" pos="206.52" lane="2o_1" slope="0.00"/>
    </timestep>
    <timestep time="43.00">
        <vehicle id="v0" x="723.43" y="498.35" angle="90.00" type="DEFAULT_VEHTYPE" speed="11.11" pos="212.08" lane="2o_1" slope="0.00"/>
    </timestep>
    <timestep time="43.50">
        <vehicle id="v0" x="728.98" y="498.35" angle="90.00" type="DEFAULT_VEHTYPE" speed="11.11" pos="217.63" lane="2o_1" slope="0.00"/>
    </timestep>
    <timestep time="44.00">
        <vehicle id="v0" x="734.54" y="498.35" angle="90.00" type="DEFAULT_VEHTYPE" speed="11.11" pos="223.19" lane="2o_1" slope="0.00"/>
    </timestep>
    <timestep time="44.50">
        <vehicle id="v0" x="740.09" y="498.35" angle="90.00" type="DEFAULT_VEHTYPE" speed="11.11" pos="228.74" lane="2o_1" slope="0.00"/>
    </timestep>
    <timestep time="45.00">
        <vehicle id="v0" x="745.65" y="498.35" angle="90.00" type="DEFAULT_VEHTYPE" speed="11.11" pos="234.30" lane="2o_1" slope="0.00"/>
    </timestep>
    <timestep time="45.50">
        <vehicle id="v0" x="751.20" y="498.35" angle="90.00" type="DEFAULT_VEHTYPE" speed="11.11" pos="239.85" lane="2o_1" slope="0.00"/>
    </timestep>
    <timestep time="46.00">
        <vehicle id="v0" x="756.76" y="498.35" angle="90.00" type="DEFAULT_VEHTYPE" speed="11.11" pos="245.41" lane="2o_1" slope="0.00"/>
    </timestep>
    <timestep time="46.50"/>
</fcd-export>
