<?xml version="1.0" encoding="UTF-8"?>

<!-- generated on Wed Jun  1 15:57:10 2016 by SUMO Version dev-SVN-r20832
<?xml version="1.0" encoding="UTF-8"?>

<configuration xmlns:xsi="http://www.w3.org/2001/XMLSchema-instance" xsi:noNamespaceSchemaLocation="http://sumo.dlr.de/xsd/sumoConfiguration.xsd">

    <input>
        <net-file value="net.net.xml"/>
        <route-files value="input_routes.rou.xml"/>
    </input>

    <output>
        <tripinfo-output value="tripinfos.xml"/>
    </output>

    <report>
        <xml-validation value="never"/>
        <no-step-log value="true"/>
    </report>

</configuration>
-->

<tripinfos xmlns:xsi="http://www.w3.org/2001/XMLSchema-instance" xsi:noNamespaceSchemaLocation="http://sumo.dlr.de/xsd/tripinfo_file.xsd">
    <tripinfo id="fast_follower" depart="0.00" departLane="beg_0" departPos="33.00" departSpeed="20.00" departDelay="0.00" arrival="9.00" arrivalLane="end_0" arrivalPos="112.83" arrivalSpeed="20.00" duration="9.00" routeLength="162.73" waitSteps="0" timeLoss="0.00" rerouteNo="0" devices="tripinfo_fast_follower" vType="DEFAULT_VEHTYPE" vaporized=""/>
    <tripinfo id="change_left" depart="0.00" departLane="end_1" departPos="10.00" departSpeed="1.00" departDelay="0.00" arrival="20.00" arrivalLane="end_0" arrivalPos="112.83" arrivalSpeed="20.00" duration="20.00" routeLength="102.83" waitSteps="4" timeLoss="8.20" rerouteNo="0" devices="tripinfo_change_left" vType="DEFAULT_VEHTYPE" vaporized=""/>
</tripinfos>
