<?xml version="1.0" encoding="UTF-8"?>

<!-- generated on Thu May 12 15:24:54 2016 by SUMO Version dev-SVN-r20713
<?xml version="1.0" encoding="UTF-8"?>

<configuration xmlns:xsi="http://www.w3.org/2001/XMLSchema-instance" xsi:noNamespaceSchemaLocation="http://sumo.dlr.de/xsd/sumoConfiguration.xsd">

    <input>
        <net-file value="net.net.xml"/>
        <route-files value="input_routes.rou.xml"/>
    </input>

    <output>
        <fcd-output value="fcd.xml"/>
        <tripinfo-output value="tripinfos.xml"/>
    </output>

    <report>
        <xml-validation value="never"/>
        <no-step-log value="true"/>
    </report>

</configuration>
-->

<fcd-export xmlns:xsi="http://www.w3.org/2001/XMLSchema-instance" xsi:noNamespaceSchemaLocation="http://sumo.dlr.de/xsd/fcd_file.xsd">
    <timestep time="0.00">
        <vehicle id="oncoming1" x="100.00" y="1.65" angle="270.00" type="DEFAULT_VEHTYPE" speed="0.00" pos="100.00" lane="-VODUGES_beg_0" slope="0.00"/>
        <vehicle id="oncoming2" x="200.00" y="1.65" angle="270.00" type="DEFAULT_VEHTYPE" speed="0.00" pos="0.00" lane="-VODUGES_beg_0" slope="0.00"/>
        <vehicle id="overtaking" x="0.00" y="-1.65" angle="90.00" type="DEFAULT_VEHTYPE" speed="0.00" pos="0.00" lane="VODUGES_beg_0" slope="0.00"/>
        <vehicle id="stopped" x="40.00" y="-1.65" angle="90.00" type="DEFAULT_VEHTYPE" speed="0.00" pos="40.00" lane="VODUGES_beg_0" slope="0.00"/>
    </timestep>
    <timestep time="1.00">
        <vehicle id="oncoming1" x="98.73" y="1.65" angle="270.00" type="DEFAULT_VEHTYPE" speed="2.54" pos="101.27" lane="-VODUGES_beg_0" slope="0.00"/>
        <vehicle id="oncoming2" x="199.02" y="1.65" angle="270.00" type="DEFAULT_VEHTYPE" speed="1.96" pos="0.98" lane="-VODUGES_beg_0" slope="0.00"/>
        <vehicle id="overtaking" x="0.84" y="-1.65" angle="90.00" type="DEFAULT_VEHTYPE" speed="1.67" pos="0.84" lane="VODUGES_beg_0" slope="0.00"/>
        <vehicle id="stopped" x="40.72" y="-1.65" angle="90.00" type="DEFAULT_VEHTYPE" speed="1.44" pos="40.72" lane="VODUGES_beg_0" slope="0.00"/>
    </timestep>
    <timestep time="2.00">
        <vehicle id="oncoming1" x="95.37" y="1.65" angle="270.00" type="DEFAULT_VEHTYPE" speed="4.17" pos="104.63" lane="-VODUGES_beg_0" slope="0.00"/>
        <vehicle id="oncoming2" x="195.92" y="1.65" angle="270.00" type="DEFAULT_VEHTYPE" speed="4.24" pos="4.08" lane="-VODUGES_beg_0" slope="0.00"/>
        <vehicle id="overtaking" x="3.78" y="-1.65" angle="90.00" type="DEFAULT_VEHTYPE" speed="4.22" pos="3.78" lane="VODUGES_beg_0" slope="0.00"/>
        <vehicle id="stopped" x="43.08" y="-1.65" angle="90.00" type="DEFAULT_VEHTYPE" speed="3.27" pos="43.08" lane="VODUGES_beg_0" slope="0.00"/>
    </timestep>
    <timestep time="3.00">
        <vehicle id="oncoming1" x="89.90" y="1.65" angle="270.00" type="DEFAULT_VEHTYPE" speed="6.77" pos="110.10" lane="-VODUGES_beg_0" slope="0.00"/>
        <vehicle id="oncoming2" x="190.82" y="1.65" angle="270.00" type="DEFAULT_VEHTYPE" speed="5.96" pos="9.18" lane="-VODUGES_beg_0" slope="0.00"/>
        <vehicle id="overtaking" x="8.82" y="-1.65" angle="90.00" type="DEFAULT_VEHTYPE" speed="5.85" pos="8.82" lane="VODUGES_beg_0" slope="0.00"/>
        <vehicle id="stopped" x="46.86" y="-1.65" angle="90.00" type="DEFAULT_VEHTYPE" speed="4.29" pos="46.86" lane="VODUGES_beg_0" slope="0.00"/>
    </timestep>
    <timestep time="4.00">
        <vehicle id="oncoming1" x="82.20" y="1.65" angle="270.00" type="DEFAULT_VEHTYPE" speed="8.63" pos="117.80" lane="-VODUGES_beg_0" slope="0.00"/>
        <vehicle id="oncoming2" x="183.72" y="1.65" angle="270.00" type="DEFAULT_VEHTYPE" speed="8.22" pos="16.28" lane="-VODUGES_beg_0" slope="0.00"/>
        <vehicle id="overtaking" x="15.67" y="-1.65" angle="90.00" type="DEFAULT_VEHTYPE" speed="7.86" pos="15.67" lane="VODUGES_beg_0" slope="0.00"/>
        <vehicle id="stopped" x="49.58" y="-1.65" angle="90.00" type="DEFAULT_VEHTYPE" speed="1.14" pos="49.58" lane="VODUGES_beg_0" slope="0.00"/>
    </timestep>
    <timestep time="5.00">
        <vehicle id="oncoming1" x="72.84" y="1.65" angle="270.00" type="DEFAULT_VEHTYPE" speed="10.09" pos="127.16" lane="-VODUGES_beg_0" slope="0.00"/>
        <vehicle id="oncoming2" x="174.41" y="1.65" angle="270.00" type="DEFAULT_VEHTYPE" speed="10.40" pos="25.59" lane="-VODUGES_beg_0" slope="0.00"/>
        <vehicle id="overtaking" x="24.79" y="-1.65" angle="90.00" type="DEFAULT_VEHTYPE" speed="10.38" pos="24.79" lane="VODUGES_beg_0" slope="0.00"/>
        <vehicle id="stopped" x="49.72" y="-1.65" angle="90.00" type="DEFAULT_VEHTYPE" speed="0.00" pos="49.72" lane="VODUGES_beg_0" slope="0.00"/>
    </timestep>
    <timestep time="6.00">
        <vehicle id="oncoming1" x="61.78" y="1.65" angle="270.00" type="DEFAULT_VEHTYPE" speed="12.03" pos="138.22" lane="-VODUGES_beg_0" slope="0.00"/>
        <vehicle id="oncoming2" x="162.91" y="1.65" angle="270.00" type="DEFAULT_VEHTYPE" speed="12.60" pos="37.09" lane="-VODUGES_beg_0" slope="0.00"/>
        <vehicle id="overtaking" x="34.19" y="-1.65" angle="90.00" type="DEFAULT_VEHTYPE" speed="8.42" pos="34.19" lane="VODUGES_beg_0" slope="0.00"/>
        <vehicle id="stopped" x="49.89" y="-1.65" angle="90.00" type="DEFAULT_VEHTYPE" speed="0.33" pos="49.89" lane="VODUGES_beg_0" slope="0.00"/>
    </timestep>
    <timestep time="7.00">
        <vehicle id="oncoming1" x="49.43" y="1.65" angle="270.00" type="DEFAULT_VEHTYPE" speed="12.67" pos="150.57" lane="-VODUGES_beg_0" slope="0.00"/>
        <vehicle id="oncoming2" x="150.20" y="1.65" angle="270.00" type="DEFAULT_VEHTYPE" speed="12.82" pos="49.80" lane="-VODUGES_beg_0" slope="0.00"/>
        <vehicle id="overtaking" x="40.37" y="-1.65" angle="90.00" type="DEFAULT_VEHTYPE" speed="3.92" pos="40.37" lane="VODUGES_beg_0" slope="0.00"/>
        <vehicle id="stopped" x="49.90" y="-1.65" angle="90.00" type="DEFAULT_VEHTYPE" speed="0.00" pos="49.90" lane="VODUGES_beg_0" slope="0.00"/>
    </timestep>
    <timestep time="8.00">
        <vehicle id="oncoming1" x="36.51" y="1.65" angle="270.00" type="DEFAULT_VEHTYPE" speed="13.18" pos="163.49" lane="-VODUGES_beg_0" slope="0.00"/>
        <vehicle id="oncoming2" x="137.00" y="1.65" angle="270.00" type="DEFAULT_VEHTYPE" speed="13.58" pos="63.00" lane="-VODUGES_beg_0" slope="0.00"/>
        <vehicle id="overtaking" x="42.38" y="-1.65" angle="90.00" type="DEFAULT_VEHTYPE" speed="0.10" pos="42.38" lane="VODUGES_beg_0" slope="0.00"/>
        <vehicle id="stopped" x="49.90" y="-1.65" angle="90.00" type="DEFAULT_VEHTYPE" speed="0.00" pos="49.90" lane="VODUGES_beg_0" slope="0.00"/>
    </timestep>
    <timestep time="9.00">
        <vehicle id="oncoming1" x="23.17" y="1.65" angle="270.00" type="DEFAULT_VEHTYPE" speed="13.50" pos="176.83" lane="-VODUGES_beg_0" slope="0.00"/>
        <vehicle id="oncoming2" x="123.76" y="1.65" angle="270.00" type="DEFAULT_VEHTYPE" speed="12.90" pos="76.24" lane="-VODUGES_beg_0" slope="0.00"/>
        <vehicle id="overtaking" x="42.38" y="1.65" angle="90.00" type="DEFAULT_VEHTYPE" speed="0.00" pos="157.62" lane="-VODUGES_beg_0" slope="0.00"/>
        <vehicle id="stopped" x="49.90" y="-1.65" angle="90.00" type="DEFAULT_VEHTYPE" speed="0.00" pos="49.90" lane="VODUGES_beg_0" slope="0.00"/>
    </timestep>
    <timestep time="10.00">
        <vehicle id="oncoming1" x="10.10" y="1.65" angle="270.00" type="DEFAULT_VEHTYPE" speed="12.65" pos="189.90" lane="-VODUGES_beg_0" slope="0.00"/>
        <vehicle id="oncoming2" x="110.81" y="1.65" angle="270.00" type="DEFAULT_VEHTYPE" speed="13.00" pos="89.19" lane="-VODUGES_beg_0" slope="0.00"/>
        <vehicle id="overtaking" x="43.67" y="1.65" angle="90.00" type="DEFAULT_VEHTYPE" speed="2.56" pos="156.33" lane="-VODUGES_beg_0" slope="0.00"/>
        <vehicle id="stopped" x="49.90" y="-1.65" angle="90.00" type="DEFAULT_VEHTYPE" speed="0.00" pos="49.90" lane="VODUGES_beg_0" slope="0.00"/>
    </timestep>
    <timestep time="11.00">
        <vehicle id="oncoming2" x="97.64" y="1.65" angle="270.00" type="DEFAULT_VEHTYPE" speed="13.36" pos="102.36" lane="-VODUGES_beg_0" slope="0.00"/>
        <vehicle id="overtaking" x="47.45" y="1.65" angle="90.00" type="DEFAULT_VEHTYPE" speed="5.00" pos="152.55" lane="-VODUGES_beg_0" slope="0.00"/>
        <vehicle id="stopped" x="49.90" y="-1.65" angle="90.00" type="DEFAULT_VEHTYPE" speed="0.00" pos="49.90" lane="VODUGES_beg_0" slope="0.00"/>
    </timestep>
    <timestep time="12.00">
        <vehicle id="oncoming2" x="84.16" y="1.65" angle="270.00" type="DEFAULT_VEHTYPE" speed="13.60" pos="115.84" lane="-VODUGES_beg_0" slope="0.00"/>
        <vehicle id="overtaking" x="53.57" y="1.65" angle="90.00" type="DEFAULT_VEHTYPE" speed="7.25" pos="146.43" lane="-VODUGES_beg_0" slope="0.00"/>
        <vehicle id="stopped" x="49.90" y="-1.65" angle="90.00" type="DEFAULT_VEHTYPE" speed="0.00" pos="49.90" lane="VODUGES_beg_0" slope="0.00"/>
    </timestep>
    <timestep time="13.00">
        <vehicle id="oncoming2" x="70.57" y="1.65" angle="270.00" type="DEFAULT_VEHTYPE" speed="13.58" pos="129.43" lane="-VODUGES_beg_0" slope="0.00"/>
        <vehicle id="overtaking" x="61.76" y="-1.65" angle="90.00" type="DEFAULT_VEHTYPE" speed="9.11" pos="61.76" lane="VODUGES_beg_0" slope="0.00"/>
        <vehicle id="stopped" x="49.90" y="-1.65" angle="90.00" type="DEFAULT_VEHTYPE" speed="0.00" pos="49.90" lane="VODUGES_beg_0" slope="0.00"/>
    </timestep>
    <timestep time="14.00">
        <vehicle id="oncoming2" x="57.27" y="1.65" angle="270.00" type="DEFAULT_VEHTYPE" speed="13.02" pos="142.73" lane="-VODUGES_beg_0" slope="0.00"/>
        <vehicle id="overtaking" x="71.64" y="-1.65" angle="90.00" type="DEFAULT_VEHTYPE" speed="10.66" pos="71.64" lane="VODUGES_beg_0" slope="0.00"/>
        <vehicle id="stopped" x="49.90" y="-1.65" angle="90.00" type="DEFAULT_VEHTYPE" speed="0.00" pos="49.90" lane="VODUGES_beg_0" slope="0.00"/>
    </timestep>
    <timestep time="15.00">
        <vehicle id="oncoming2" x="44.27" y="1.65" angle="270.00" type="DEFAULT_VEHTYPE" speed="12.99" pos="155.73" lane="-VODUGES_beg_0" slope="0.00"/>
        <vehicle id="overtaking" x="83.13" y="-1.65" angle="90.00" type="DEFAULT_VEHTYPE" speed="12.33" pos="83.13" lane="VODUGES_beg_0" slope="0.00"/>
        <vehicle id="stopped" x="49.90" y="-1.65" angle="90.00" type="DEFAULT_VEHTYPE" speed="0.00" pos="49.90" lane="VODUGES_beg_0" slope="0.00"/>
    </timestep>
    <timestep time="16.00">
        <vehicle id="oncoming2" x="31.02" y="1.65" angle="270.00" type="DEFAULT_VEHTYPE" speed="13.49" pos="168.98" lane="-VODUGES_beg_0" slope="0.00"/>
        <vehicle id="overtaking" x="95.63" y="-1.65" angle="90.00" type="DEFAULT_VEHTYPE" speed="12.67" pos="95.63" lane="VODUGES_beg_0" slope="0.00"/>
        <vehicle id="stopped" x="49.90" y="-1.65" angle="90.00" type="DEFAULT_VEHTYPE" speed="0.00" pos="49.90" lane="VODUGES_beg_0" slope="0.00"/>
    </timestep>
    <timestep time="17.00">
        <vehicle id="oncoming2" x="17.44" y="1.65" angle="270.00" type="DEFAULT_VEHTYPE" speed="13.67" pos="182.56" lane="-VODUGES_beg_0" slope="0.00"/>
        <vehicle id="overtaking" x="108.59" y="-1.65" angle="90.00" type="DEFAULT_VEHTYPE" speed="13.25" pos="108.59" lane="VODUGES_beg_0" slope="0.00"/>
        <vehicle id="stopped" x="49.90" y="-1.65" angle="90.00" type="DEFAULT_VEHTYPE" speed="0.00" pos="49.90" lane="VODUGES_beg_0" slope="0.00"/>
    </timestep>
    <timestep time="18.00">
        <vehicle id="oncoming2" x="4.08" y="1.65" angle="270.00" type="DEFAULT_VEHTYPE" speed="13.06" pos="195.92" lane="-VODUGES_beg_0" slope="0.00"/>
        <vehicle id="overtaking" x="121.54" y="-1.65" angle="90.00" type="DEFAULT_VEHTYPE" speed="12.65" pos="121.54" lane="VODUGES_beg_0" slope="0.00"/>
        <vehicle id="stopped" x="49.90" y="-1.65" angle="90.00" type="DEFAULT_VEHTYPE" speed="0.00" pos="49.90" lane="VODUGES_beg_0" slope="0.00"/>
    </timestep>
    <timestep time="19.00">
        <vehicle id="overtaking" x="134.71" y="-1.65" angle="90.00" type="DEFAULT_VEHTYPE" speed="13.69" pos="134.71" lane="VODUGES_beg_0" slope="0.00"/>
        <vehicle id="stopped" x="49.90" y="-1.65" angle="90.00" type="DEFAULT_VEHTYPE" speed="0.00" pos="49.90" lane="VODUGES_beg_0" slope="0.00"/>
    </timestep>
    <timestep time="20.00">
        <vehicle id="overtaking" x="148.15" y="-1.65" angle="90.00" type="DEFAULT_VEHTYPE" speed="13.18" pos="148.15" lane="VODUGES_beg_0" slope="0.00"/>
        <vehicle id="stopped" x="49.90" y="-1.65" angle="90.00" type="DEFAULT_VEHTYPE" speed="0.00" pos="49.90" lane="VODUGES_beg_0" slope="0.00"/>
    </timestep>
    <timestep time="21.00">
        <vehicle id="overtaking" x="161.64" y="-1.65" angle="90.00" type="DEFAULT_VEHTYPE" speed="13.80" pos="161.64" lane="VODUGES_beg_0" slope="0.00"/>
        <vehicle id="stopped" x="49.90" y="-1.65" angle="90.00" type="DEFAULT_VEHTYPE" speed="0.00" pos="49.90" lane="VODUGES_beg_0" slope="0.00"/>
    </timestep>
    <timestep time="22.00">
        <vehicle id="overtaking" x="174.84" y="-1.65" angle="90.00" type="DEFAULT_VEHTYPE" speed="12.60" pos="174.84" lane="VODUGES_beg_0" slope="0.00"/>
        <vehicle id="stopped" x="49.90" y="-1.65" angle="90.00" type="DEFAULT_VEHTYPE" speed="0.00" pos="49.90" lane="VODUGES_beg_0" slope="0.00"/>
    </timestep>
    <timestep time="23.00">
        <vehicle id="overtaking" x="187.87" y="-1.65" angle="90.00" type="DEFAULT_VEHTYPE" speed="13.45" pos="187.87" lane="VODUGES_beg_0" slope="0.00"/>
        <vehicle id="stopped" x="49.90" y="-1.65" angle="90.00" type="DEFAULT_VEHTYPE" speed="0.00" pos="49.90" lane="VODUGES_beg_0" slope="0.00"/>
    </timestep>
    <timestep time="24.00">
        <vehicle id="stopped" x="49.90" y="-1.65" angle="90.00" type="DEFAULT_VEHTYPE" speed="0.00" pos="49.90" lane="VODUGES_beg_0" slope="0.00"/>
    </timestep>
    <timestep time="25.00">
        <vehicle id="stopped" x="49.90" y="-1.65" angle="90.00" type="DEFAULT_VEHTYPE" speed="0.00" pos="49.90" lane="VODUGES_beg_0" slope="0.00"/>
    </timestep>
    <timestep time="26.00">
        <vehicle id="stopped" x="49.90" y="-1.65" angle="90.00" type="DEFAULT_VEHTYPE" speed="0.00" pos="49.90" lane="VODUGES_beg_0" slope="0.00"/>
    </timestep>
    <timestep time="27.00">
        <vehicle id="stopped" x="49.90" y="-1.65" angle="90.00" type="DEFAULT_VEHTYPE" speed="0.00" pos="49.90" lane="VODUGES_beg_0" slope="0.00"/>
    </timestep>
    <timestep time="28.00">
        <vehicle id="stopped" x="49.90" y="-1.65" angle="90.00" type="DEFAULT_VEHTYPE" speed="0.00" pos="49.90" lane="VODUGES_beg_0" slope="0.00"/>
    </timestep>
    <timestep time="29.00">
        <vehicle id="stopped" x="49.90" y="-1.65" angle="90.00" type="DEFAULT_VEHTYPE" speed="0.00" pos="49.90" lane="VODUGES_beg_0" slope="0.00"/>
    </timestep>
    <timestep time="30.00">
        <vehicle id="stopped" x="49.90" y="-1.65" angle="90.00" type="DEFAULT_VEHTYPE" speed="0.00" pos="49.90" lane="VODUGES_beg_0" slope="0.00"/>
    </timestep>
    <timestep time="31.00">
        <vehicle id="stopped" x="49.90" y="-1.65" angle="90.00" type="DEFAULT_VEHTYPE" speed="0.00" pos="49.90" lane="VODUGES_beg_0" slope="0.00"/>
    </timestep>
    <timestep time="32.00">
        <vehicle id="stopped" x="49.90" y="-1.65" angle="90.00" type="DEFAULT_VEHTYPE" speed="0.00" pos="49.90" lane="VODUGES_beg_0" slope="0.00"/>
    </timestep>
    <timestep time="33.00">
        <vehicle id="stopped" x="49.90" y="-1.65" angle="90.00" type="DEFAULT_VEHTYPE" speed="0.00" pos="49.90" lane="VODUGES_beg_0" slope="0.00"/>
    </timestep>
    <timestep time="34.00">
        <vehicle id="stopped" x="49.90" y="-1.65" angle="90.00" type="DEFAULT_VEHTYPE" speed="0.00" pos="49.90" lane="VODUGES_beg_0" slope="0.00"/>
    </timestep>
    <timestep time="35.00">
        <vehicle id="stopped" x="49.90" y="-1.65" angle="90.00" type="DEFAULT_VEHTYPE" speed="0.00" pos="49.90" lane="VODUGES_beg_0" slope="0.00"/>
    </timestep>
    <timestep time="36.00">
        <vehicle id="stopped" x="49.90" y="-1.65" angle="90.00" type="DEFAULT_VEHTYPE" speed="0.00" pos="49.90" lane="VODUGES_beg_0" slope="0.00"/>
    </timestep>
    <timestep time="37.00">
        <vehicle id="stopped" x="49.90" y="-1.65" angle="90.00" type="DEFAULT_VEHTYPE" speed="0.00" pos="49.90" lane="VODUGES_beg_0" slope="0.00"/>
    </timestep>
    <timestep time="38.00">
        <vehicle id="stopped" x="49.90" y="-1.65" angle="90.00" type="DEFAULT_VEHTYPE" speed="0.00" pos="49.90" lane="VODUGES_beg_0" slope="0.00"/>
    </timestep>
    <timestep time="39.00">
        <vehicle id="stopped" x="49.90" y="-1.65" angle="90.00" type="DEFAULT_VEHTYPE" speed="0.00" pos="49.90" lane="VODUGES_beg_0" slope="0.00"/>
    </timestep>
    <timestep time="40.00">
        <vehicle id="stopped" x="49.90" y="-1.65" angle="90.00" type="DEFAULT_VEHTYPE" speed="0.00" pos="49.90" lane="VODUGES_beg_0" slope="0.00"/>
    </timestep>
    <timestep time="41.00">
        <vehicle id="stopped" x="49.90" y="-1.65" angle="90.00" type="DEFAULT_VEHTYPE" speed="0.00" pos="49.90" lane="VODUGES_beg_0" slope="0.00"/>
    </timestep>
    <timestep time="42.00">
        <vehicle id="stopped" x="49.90" y="-1.65" angle="90.00" type="DEFAULT_VEHTYPE" speed="0.00" pos="49.90" lane="VODUGES_beg_0" slope="0.00"/>
    </timestep>
    <timestep time="43.00">
        <vehicle id="stopped" x="49.90" y="-1.65" angle="90.00" type="DEFAULT_VEHTYPE" speed="0.00" pos="49.90" lane="VODUGES_beg_0" slope="0.00"/>
    </timestep>
    <timestep time="44.00">
        <vehicle id="stopped" x="49.90" y="-1.65" angle="90.00" type="DEFAULT_VEHTYPE" speed="0.00" pos="49.90" lane="VODUGES_beg_0" slope="0.00"/>
    </timestep>
    <timestep time="45.00">
        <vehicle id="stopped" x="49.90" y="-1.65" angle="90.00" type="DEFAULT_VEHTYPE" speed="0.00" pos="49.90" lane="VODUGES_beg_0" slope="0.00"/>
    </timestep>
    <timestep time="46.00">
        <vehicle id="stopped" x="49.90" y="-1.65" angle="90.00" type="DEFAULT_VEHTYPE" speed="0.00" pos="49.90" lane="VODUGES_beg_0" slope="0.00"/>
    </timestep>
    <timestep time="47.00">
        <vehicle id="stopped" x="49.90" y="-1.65" angle="90.00" type="DEFAULT_VEHTYPE" speed="0.00" pos="49.90" lane="VODUGES_beg_0" slope="0.00"/>
    </timestep>
    <timestep time="48.00">
        <vehicle id="stopped" x="49.90" y="-1.65" angle="90.00" type="DEFAULT_VEHTYPE" speed="0.00" pos="49.90" lane="VODUGES_beg_0" slope="0.00"/>
    </timestep>
    <timestep time="49.00">
        <vehicle id="stopped" x="49.90" y="-1.65" angle="90.00" type="DEFAULT_VEHTYPE" speed="0.00" pos="49.90" lane="VODUGES_beg_0" slope="0.00"/>
    </timestep>
    <timestep time="50.00">
        <vehicle id="stopped" x="49.90" y="-1.65" angle="90.00" type="DEFAULT_VEHTYPE" speed="0.00" pos="49.90" lane="VODUGES_beg_0" slope="0.00"/>
    </timestep>
    <timestep time="51.00">
        <vehicle id="stopped" x="49.90" y="-1.65" angle="90.00" type="DEFAULT_VEHTYPE" speed="0.00" pos="49.90" lane="VODUGES_beg_0" slope="0.00"/>
    </timestep>
    <timestep time="52.00">
        <vehicle id="stopped" x="49.90" y="-1.65" angle="90.00" type="DEFAULT_VEHTYPE" speed="0.00" pos="49.90" lane="VODUGES_beg_0" slope="0.00"/>
    </timestep>
    <timestep time="53.00">
        <vehicle id="stopped" x="49.90" y="-1.65" angle="90.00" type="DEFAULT_VEHTYPE" speed="0.00" pos="49.90" lane="VODUGES_beg_0" slope="0.00"/>
    </timestep>
    <timestep time="54.00">
        <vehicle id="stopped" x="49.90" y="-1.65" angle="90.00" type="DEFAULT_VEHTYPE" speed="0.00" pos="49.90" lane="VODUGES_beg_0" slope="0.00"/>
    </timestep>
    <timestep time="55.00">
        <vehicle id="stopped" x="49.90" y="-1.65" angle="90.00" type="DEFAULT_VEHTYPE" speed="0.00" pos="49.90" lane="VODUGES_beg_0" slope="0.00"/>
    </timestep>
    <timestep time="56.00">
        <vehicle id="stopped" x="49.90" y="-1.65" angle="90.00" type="DEFAULT_VEHTYPE" speed="0.00" pos="49.90" lane="VODUGES_beg_0" slope="0.00"/>
    </timestep>
    <timestep time="57.00">
        <vehicle id="stopped" x="49.90" y="-1.65" angle="90.00" type="DEFAULT_VEHTYPE" speed="0.00" pos="49.90" lane="VODUGES_beg_0" slope="0.00"/>
    </timestep>
    <timestep time="58.00">
        <vehicle id="stopped" x="49.90" y="-1.65" angle="90.00" type="DEFAULT_VEHTYPE" speed="0.00" pos="49.90" lane="VODUGES_beg_0" slope="0.00"/>
    </timestep>
    <timestep time="59.00">
        <vehicle id="stopped" x="49.90" y="-1.65" angle="90.00" type="DEFAULT_VEHTYPE" speed="0.00" pos="49.90" lane="VODUGES_beg_0" slope="0.00"/>
    </timestep>
    <timestep time="60.00">
        <vehicle id="stopped" x="49.90" y="-1.65" angle="90.00" type="DEFAULT_VEHTYPE" speed="0.00" pos="49.90" lane="VODUGES_beg_0" slope="0.00"/>
    </timestep>
    <timestep time="61.00">
        <vehicle id="stopped" x="49.90" y="-1.65" angle="90.00" type="DEFAULT_VEHTYPE" speed="0.00" pos="49.90" lane="VODUGES_beg_0" slope="0.00"/>
    </timestep>
    <timestep time="62.00">
        <vehicle id="stopped" x="49.90" y="-1.65" angle="90.00" type="DEFAULT_VEHTYPE" speed="0.00" pos="49.90" lane="VODUGES_beg_0" slope="0.00"/>
    </timestep>
    <timestep time="63.00">
        <vehicle id="stopped" x="49.90" y="-1.65" angle="90.00" type="DEFAULT_VEHTYPE" speed="0.00" pos="49.90" lane="VODUGES_beg_0" slope="0.00"/>
    </timestep>
    <timestep time="64.00">
        <vehicle id="stopped" x="49.90" y="-1.65" angle="90.00" type="DEFAULT_VEHTYPE" speed="0.00" pos="49.90" lane="VODUGES_beg_0" slope="0.00"/>
    </timestep>
    <timestep time="65.00">
        <vehicle id="stopped" x="49.90" y="-1.65" angle="90.00" type="DEFAULT_VEHTYPE" speed="0.00" pos="49.90" lane="VODUGES_beg_0" slope="0.00"/>
    </timestep>
    <timestep time="66.00">
        <vehicle id="stopped" x="49.90" y="-1.65" angle="90.00" type="DEFAULT_VEHTYPE" speed="0.00" pos="49.90" lane="VODUGES_beg_0" slope="0.00"/>
    </timestep>
    <timestep time="67.00">
        <vehicle id="stopped" x="49.90" y="-1.65" angle="90.00" type="DEFAULT_VEHTYPE" speed="0.00" pos="49.90" lane="VODUGES_beg_0" slope="0.00"/>
    </timestep>
    <timestep time="68.00">
        <vehicle id="stopped" x="49.90" y="-1.65" angle="90.00" type="DEFAULT_VEHTYPE" speed="0.00" pos="49.90" lane="VODUGES_beg_0" slope="0.00"/>
    </timestep>
    <timestep time="69.00">
        <vehicle id="stopped" x="49.90" y="-1.65" angle="90.00" type="DEFAULT_VEHTYPE" speed="0.00" pos="49.90" lane="VODUGES_beg_0" slope="0.00"/>
    </timestep>
    <timestep time="70.00">
        <vehicle id="stopped" x="49.90" y="-1.65" angle="90.00" type="DEFAULT_VEHTYPE" speed="0.00" pos="49.90" lane="VODUGES_beg_0" slope="0.00"/>
    </timestep>
    <timestep time="71.00">
        <vehicle id="stopped" x="49.90" y="-1.65" angle="90.00" type="DEFAULT_VEHTYPE" speed="0.00" pos="49.90" lane="VODUGES_beg_0" slope="0.00"/>
    </timestep>
    <timestep time="72.00">
        <vehicle id="stopped" x="49.90" y="-1.65" angle="90.00" type="DEFAULT_VEHTYPE" speed="0.00" pos="49.90" lane="VODUGES_beg_0" slope="0.00"/>
    </timestep>
    <timestep time="73.00">
        <vehicle id="stopped" x="49.90" y="-1.65" angle="90.00" type="DEFAULT_VEHTYPE" speed="0.00" pos="49.90" lane="VODUGES_beg_0" slope="0.00"/>
    </timestep>
    <timestep time="74.00">
        <vehicle id="stopped" x="49.90" y="-1.65" angle="90.00" type="DEFAULT_VEHTYPE" speed="0.00" pos="49.90" lane="VODUGES_beg_0" slope="0.00"/>
    </timestep>
    <timestep time="75.00">
        <vehicle id="stopped" x="49.90" y="-1.65" angle="90.00" type="DEFAULT_VEHTYPE" speed="0.00" pos="49.90" lane="VODUGES_beg_0" slope="0.00"/>
    </timestep>
    <timestep time="76.00">
        <vehicle id="stopped" x="49.90" y="-1.65" angle="90.00" type="DEFAULT_VEHTYPE" speed="0.00" pos="49.90" lane="VODUGES_beg_0" slope="0.00"/>
    </timestep>
    <timestep time="77.00">
        <vehicle id="stopped" x="49.90" y="-1.65" angle="90.00" type="DEFAULT_VEHTYPE" speed="0.00" pos="49.90" lane="VODUGES_beg_0" slope="0.00"/>
    </timestep>
    <timestep time="78.00">
        <vehicle id="stopped" x="49.90" y="-1.65" angle="90.00" type="DEFAULT_VEHTYPE" speed="0.00" pos="49.90" lane="VODUGES_beg_0" slope="0.00"/>
    </timestep>
    <timestep time="79.00">
        <vehicle id="stopped" x="49.90" y="-1.65" angle="90.00" type="DEFAULT_VEHTYPE" speed="0.00" pos="49.90" lane="VODUGES_beg_0" slope="0.00"/>
    </timestep>
    <timestep time="80.00">
        <vehicle id="stopped" x="49.90" y="-1.65" angle="90.00" type="DEFAULT_VEHTYPE" speed="0.00" pos="49.90" lane="VODUGES_beg_0" slope="0.00"/>
    </timestep>
    <timestep time="81.00">
        <vehicle id="stopped" x="49.90" y="-1.65" angle="90.00" type="DEFAULT_VEHTYPE" speed="0.00" pos="49.90" lane="VODUGES_beg_0" slope="0.00"/>
    </timestep>
    <timestep time="82.00">
        <vehicle id="stopped" x="49.90" y="-1.65" angle="90.00" type="DEFAULT_VEHTYPE" speed="0.00" pos="49.90" lane="VODUGES_beg_0" slope="0.00"/>
    </timestep>
    <timestep time="83.00">
        <vehicle id="stopped" x="49.90" y="-1.65" angle="90.00" type="DEFAULT_VEHTYPE" speed="0.00" pos="49.90" lane="VODUGES_beg_0" slope="0.00"/>
    </timestep>
    <timestep time="84.00">
        <vehicle id="stopped" x="49.90" y="-1.65" angle="90.00" type="DEFAULT_VEHTYPE" speed="0.00" pos="49.90" lane="VODUGES_beg_0" slope="0.00"/>
    </timestep>
    <timestep time="85.00">
        <vehicle id="stopped" x="49.90" y="-1.65" angle="90.00" type="DEFAULT_VEHTYPE" speed="0.00" pos="49.90" lane="VODUGES_beg_0" slope="0.00"/>
    </timestep>
    <timestep time="86.00">
        <vehicle id="stopped" x="49.90" y="-1.65" angle="90.00" type="DEFAULT_VEHTYPE" speed="0.00" pos="49.90" lane="VODUGES_beg_0" slope="0.00"/>
    </timestep>
    <timestep time="87.00">
        <vehicle id="stopped" x="49.90" y="-1.65" angle="90.00" type="DEFAULT_VEHTYPE" speed="0.00" pos="49.90" lane="VODUGES_beg_0" slope="0.00"/>
    </timestep>
    <timestep time="88.00">
        <vehicle id="stopped" x="49.90" y="-1.65" angle="90.00" type="DEFAULT_VEHTYPE" speed="0.00" pos="49.90" lane="VODUGES_beg_0" slope="0.00"/>
    </timestep>
    <timestep time="89.00">
        <vehicle id="stopped" x="49.90" y="-1.65" angle="90.00" type="DEFAULT_VEHTYPE" speed="0.00" pos="49.90" lane="VODUGES_beg_0" slope="0.00"/>
    </timestep>
    <timestep time="90.00">
        <vehicle id="stopped" x="49.90" y="-1.65" angle="90.00" type="DEFAULT_VEHTYPE" speed="0.00" pos="49.90" lane="VODUGES_beg_0" slope="0.00"/>
    </timestep>
    <timestep time="91.00">
        <vehicle id="stopped" x="49.90" y="-1.65" angle="90.00" type="DEFAULT_VEHTYPE" speed="0.00" pos="49.90" lane="VODUGES_beg_0" slope="0.00"/>
    </timestep>
    <timestep time="92.00">
        <vehicle id="stopped" x="49.90" y="-1.65" angle="90.00" type="DEFAULT_VEHTYPE" speed="0.00" pos="49.90" lane="VODUGES_beg_0" slope="0.00"/>
    </timestep>
    <timestep time="93.00">
        <vehicle id="stopped" x="49.90" y="-1.65" angle="90.00" type="DEFAULT_VEHTYPE" speed="0.00" pos="49.90" lane="VODUGES_beg_0" slope="0.00"/>
    </timestep>
    <timestep time="94.00">
        <vehicle id="stopped" x="49.90" y="-1.65" angle="90.00" type="DEFAULT_VEHTYPE" speed="0.00" pos="49.90" lane="VODUGES_beg_0" slope="0.00"/>
    </timestep>
    <timestep time="95.00">
        <vehicle id="stopped" x="49.90" y="-1.65" angle="90.00" type="DEFAULT_VEHTYPE" speed="0.00" pos="49.90" lane="VODUGES_beg_0" slope="0.00"/>
    </timestep>
    <timestep time="96.00">
        <vehicle id="stopped" x="49.90" y="-1.65" angle="90.00" type="DEFAULT_VEHTYPE" speed="0.00" pos="49.90" lane="VODUGES_beg_0" slope="0.00"/>
    </timestep>
    <timestep time="97.00">
        <vehicle id="stopped" x="49.90" y="-1.65" angle="90.00" type="DEFAULT_VEHTYPE" speed="0.00" pos="49.90" lane="VODUGES_beg_0" slope="0.00"/>
    </timestep>
    <timestep time="98.00">
        <vehicle id="stopped" x="49.90" y="-1.65" angle="90.00" type="DEFAULT_VEHTYPE" speed="0.00" pos="49.90" lane="VODUGES_beg_0" slope="0.00"/>
    </timestep>
    <timestep time="99.00">
        <vehicle id="stopped" x="49.90" y="-1.65" angle="90.00" type="DEFAULT_VEHTYPE" speed="0.00" pos="49.90" lane="VODUGES_beg_0" slope="0.00"/>
    </timestep>
    <timestep time="100.00">
        <vehicle id="stopped" x="49.90" y="-1.65" angle="90.00" type="DEFAULT_VEHTYPE" speed="0.00" pos="49.90" lane="VODUGES_beg_0" slope="0.00"/>
    </timestep>
    <timestep time="101.00">
        <vehicle id="stopped" x="49.90" y="-1.65" angle="90.00" type="DEFAULT_VEHTYPE" speed="0.00" pos="49.90" lane="VODUGES_beg_0" slope="0.00"/>
    </timestep>
    <timestep time="102.00">
        <vehicle id="stopped" x="49.90" y="-1.65" angle="90.00" type="DEFAULT_VEHTYPE" speed="0.00" pos="49.90" lane="VODUGES_beg_0" slope="0.00"/>
    </timestep>
    <timestep time="103.00">
        <vehicle id="stopped" x="49.90" y="-1.65" angle="90.00" type="DEFAULT_VEHTYPE" speed="0.00" pos="49.90" lane="VODUGES_beg_0" slope="0.00"/>
    </timestep>
    <timestep time="104.00">
        <vehicle id="stopped" x="49.90" y="-1.65" angle="90.00" type="DEFAULT_VEHTYPE" speed="0.00" pos="49.90" lane="VODUGES_beg_0" slope="0.00"/>
    </timestep>
    <timestep time="105.00">
        <vehicle id="stopped" x="49.90" y="-1.65" angle="90.00" type="DEFAULT_VEHTYPE" speed="0.00" pos="49.90" lane="VODUGES_beg_0" slope="0.00"/>
    </timestep>
    <timestep time="106.00">
        <vehicle id="stopped" x="49.90" y="-1.65" angle="90.00" type="DEFAULT_VEHTYPE" speed="0.00" pos="49.90" lane="VODUGES_beg_0" slope="0.00"/>
    </timestep>
    <timestep time="107.00">
        <vehicle id="stopped" x="49.90" y="-1.65" angle="90.00" type="DEFAULT_VEHTYPE" speed="0.00" pos="49.90" lane="VODUGES_beg_0" slope="0.00"/>
    </timestep>
    <timestep time="108.00">
        <vehicle id="stopped" x="49.95" y="-1.65" angle="90.00" type="DEFAULT_VEHTYPE" speed="0.11" pos="49.95" lane="VODUGES_beg_0" slope="0.00"/>
    </timestep>
    <timestep time="109.00">