<?xml version="1.0" encoding="UTF-8"?>

<!-- generated on Thu May 12 15:21:58 2016 by SUMO Version dev-SVN-r20713
<?xml version="1.0" encoding="UTF-8"?>

<configuration xmlns:xsi="http://www.w3.org/2001/XMLSchema-instance" xsi:noNamespaceSchemaLocation="http://sumo.dlr.de/xsd/sumoConfiguration.xsd">

    <input>
        <net-file value="net.net.xml"/>
        <route-files value="input_routes.rou.xml"/>
        <additional-files value="input_additional.add.xml"/>
    </input>

    <output>
        <fcd-output value="fcd.xml"/>
    </output>

    <time>
        <step-length value="0.5"/>
    </time>

    <processing>
        <lanechange.duration value="10"/>
    </processing>

    <report>
        <xml-validation value="never"/>
        <duration-log.disable value="true"/>
        <no-step-log value="true"/>
    </report>

</configuration>
-->

<fcd-export xmlns:xsi="http://www.w3.org/2001/XMLSchema-instance" xsi:noNamespaceSchemaLocation="http://sumo.dlr.de/xsd/fcd_file.xsd">
    <timestep time="0.00">
        <vehicle id="v0" x="256.34" y="491.75" angle="90.00" type="DEFAULT_VEHTYPE" speed="0.00" pos="5.10" lane="1si_0" slope="0.00"/>
    </timestep>
    <timestep time="0.50">
        <vehicle id="v0" x="256.65" y="491.75" angle="90.00" type="DEFAULT_VEHTYPE" speed="1.30" pos="5.42" lane="1si_0" slope="0.00"/>
    </timestep>
    <timestep time="1.00">
        <vehicle id="v0" x="257.57" y="491.75" angle="90.00" type="DEFAULT_VEHTYPE" speed="2.60" pos="6.40" lane="1si_0" slope="0.00"/>
    </timestep>
    <timestep time="1.50">
        <vehicle id="v0" x="259.11" y="491.75" angle="90.00" type="DEFAULT_VEHTYPE" speed="3.90" pos="8.03" lane="1si_0" slope="0.00"/>
    </timestep>
    <timestep time="2.00">
        <vehicle id="v0" x="261.27" y="491.75" angle="90.00" type="DEFAULT_VEHTYPE" speed="5.20" pos="10.30" lane="1si_0" slope="0.00"/>
    </timestep>
    <timestep time="2.50">
        <vehicle id="v0" x="264.05" y="491.75" angle="90.00" type="DEFAULT_VEHTYPE" speed="6.50" pos="13.23" lane="1si_0" slope="0.00"/>
    </timestep>
    <timestep time="3.00">
        <vehicle id="v0" x="267.44" y="491.75" angle="90.00" type="DEFAULT_VEHTYPE" speed="7.80" pos="16.80" lane="1si_0" slope="0.00"/>
    </timestep>
    <timestep time="3.50">
        <vehicle id="v0" x="271.44" y="491.75" angle="90.00" type="DEFAULT_VEHTYPE" speed="9.10" pos="21.02" lane="1si_0" slope="0.00"/>
    </timestep>
    <timestep time="4.00">
        <vehicle id="v0" x="276.07" y="491.75" angle="90.00" type="DEFAULT_VEHTYPE" speed="10.40" pos="25.90" lane="1si_0" slope="0.00"/>
    </timestep>
    <timestep time="4.50">
        <vehicle id="v0" x="281.31" y="491.91" angle="89.70" type="DEFAULT_VEHTYPE" speed="11.70" pos="31.42" lane="1si_0" slope="0.00"/>
    </timestep>
    <timestep time="5.00">
        <vehicle id="v0" x="287.17" y="492.07" angle="89.40" type="DEFAULT_VEHTYPE" speed="13.00" pos="37.60" lane="1si_0" slope="0.00"/>
    </timestep>
    <timestep time="5.50">
        <vehicle id="v0" x="293.54" y="492.23" angle="89.10" type="DEFAULT_VEHTYPE" speed="13.89" pos="44.32" lane="1si_0" slope="0.00"/>
    </timestep>
    <timestep time="6.00">
        <vehicle id="v0" x="300.13" y="492.39" angle="88.80" type="DEFAULT_VEHTYPE" speed="13.89" pos="51.27" lane="1si_0" slope="0.00"/>
    </timestep>
    <timestep time="6.50">
        <vehicle id="v0" x="306.72" y="492.55" angle="88.50" type="DEFAULT_VEHTYPE" speed="13.89" pos="58.21" lane="1si_0" slope="0.00"/>
    </timestep>
    <timestep time="7.00">
        <vehicle id="v0" x="313.31" y="492.71" angle="88.20" type="DEFAULT_VEHTYPE" speed="13.89" pos="65.16" lane="1si_0" slope="0.00"/>
    </timestep>
    <timestep time="7.50">
        <vehicle id="v0" x="319.90" y="492.87" angle="87.90" type="DEFAULT_VEHTYPE" speed="13.89" pos="72.10" lane="1si_0" slope="0.00"/>
    </timestep>
    <timestep time="8.00">
        <vehicle id="v0" x="326.48" y="493.03" angle="87.60" type="DEFAULT_VEHTYPE" speed="13.89" pos="79.05" lane="1si_0" slope="0.00"/>
    </timestep>
    <timestep time="8.50">
        <vehicle id="v0" x="333.07" y="493.19" angle="87.30" type="DEFAULT_VEHTYPE" speed="13.89" pos="85.99" lane="1si_0" slope="0.00"/>
    </timestep>
    <timestep time="9.00">
        <vehicle id="v0" x="339.66" y="493.35" angle="87.00" type="DEFAULT_VEHTYPE" speed="13.89" pos="92.94" lane="1si_0" slope="0.00"/>
    </timestep>
    <timestep time="9.50">
        <vehicle id="v0" x="346.25" y="493.61" angle="87.30" type="DEFAULT_VEHTYPE" speed="13.89" pos="99.88" lane="1si_1" slope="0.00"/>
    </timestep>
    <timestep time="10.00">
        <vehicle id="v0" x="352.84" y="493.77" angle="87.60" type="DEFAULT_VEHTYPE" speed="13.89" pos="106.83" lane="1si_1" slope="0.00"/>
    </timestep>
    <timestep time="10.50">
        <vehicle id="v0" x="359.42" y="493.93" angle="87.90" type="DEFAULT_VEHTYPE" speed="13.89" pos="113.77" lane="1si_1" slope="0.00"/>
    </timestep>
    <timestep time="11.00">
        <vehicle id="v0" x="366.01" y="494.09" angle="88.20" type="DEFAULT_VEHTYPE" speed="13.89" pos="120.72" lane="1si_1" slope="0.00"/>
    </timestep>
    <timestep time="11.50">
        <vehicle id="v0" x="372.60" y="494.25" angle="88.50" type="DEFAULT_VEHTYPE" speed="13.89" pos="127.66" lane="1si_1" slope="0.00"/>
    </timestep>
    <timestep time="12.00">
        <vehicle id="v0" x="379.19" y="494.41" angle="88.80" type="DEFAULT_VEHTYPE" speed="13.89" pos="134.61" lane="1si_1" slope="0.00"/>
    </timestep>
    <timestep time="12.50">
        <vehicle id="v0" x="385.78" y="494.57" angle="89.10" type="DEFAULT_VEHTYPE" speed="13.89" pos="141.55" lane="1si_1" slope="0.00"/>
    </timestep>
    <timestep time="13.00">
        <vehicle id="v0" x="392.36" y="494.73" angle="89.40" type="DEFAULT_VEHTYPE" speed="13.89" pos="148.50" lane="1si_1" slope="0.00"/>
    </timestep>
    <timestep time="13.50">
        <vehicle id="v0" x="398.95" y="494.89" angle="89.70" type="DEFAULT_VEHTYPE" speed="13.89" pos="155.44" lane="1si_1" slope="0.00"/>
    </timestep>
    <timestep time="14.00">
        <vehicle id="v0" x="405.54" y="495.05" angle="90.00" type="DEFAULT_VEHTYPE" speed="13.89" pos="162.39" lane="1si_1" slope="0.00"/>
    </timestep>
    <timestep time="14.50">
        <vehicle id="v0" x="412.13" y="495.05" angle="90.00" type="DEFAULT_VEHTYPE" speed="13.89" pos="169.33" lane="1si_1" slope="0.00"/>
    </timestep>
    <timestep time="15.00">
        <vehicle id="v0" x="418.72" y="495.05" angle="90.00" type="DEFAULT_VEHTYPE" speed="13.89" pos="176.28" lane="1si_1" slope="0.00"/>
    </timestep>
    <timestep time="15.50">
        <vehicle id="v0" x="425.30" y="495.05" angle="90.00" type="DEFAULT_VEHTYPE" speed="13.89" pos="183.22" lane="1si_1" slope="0.00"/>
    </timestep>
    <timestep time="16.00">
        <vehicle id="v0" x="431.89" y="495.05" angle="90.00" type="DEFAULT_VEHTYPE" speed="13.89" pos="190.17" lane="1si_1" slope="0.00"/>
    </timestep>
    <timestep time="16.50">
        <vehicle id="v0" x="438.48" y="495.05" angle="90.00" type="DEFAULT_VEHTYPE" speed="13.89" pos="197.11" lane="1si_1" slope="0.00"/>
    </timestep>
    <timestep time="17.00">
        <vehicle id="v0" x="445.07" y="495.05" angle="90.00" type="DEFAULT_VEHTYPE" speed="13.89" pos="204.06" lane="1si_1" slope="0.00"/>
    </timestep>
    <timestep time="17.50">
        <vehicle id="v0" x="451.66" y="495.05" angle="90.00" type="DEFAULT_VEHTYPE" speed="13.89" pos="211.00" lane="1si_1" slope="0.00"/>
    </timestep>
    <timestep time="18.00">
        <vehicle id="v0" x="458.24" y="495.05" angle="90.00" type="DEFAULT_VEHTYPE" speed="13.89" pos="217.95" lane="1si_1" slope="0.00"/>
    </timestep>
    <timestep time="18.50">
        <vehicle id="v0" x="464.62" y="495.05" angle="90.00" type="DEFAULT_VEHTYPE" speed="12.99" pos="224.67" lane="1si_1" slope="0.00"/>
    </timestep>
    <timestep time="19.00">
        <vehicle id="v0" x="470.33" y="495.05" angle="90.00" type="DEFAULT_VEHTYPE" speed="11.09" pos="230.69" lane="1si_1" slope="0.00"/>
    </timestep>
    <timestep time="19.50">
        <vehicle id="v0" x="475.15" y="495.05" angle="90.00" type="DEFAULT_VEHTYPE" speed="9.25" pos="235.77" lane="1si_1" slope="0.00"/>
    </timestep>
    <timestep time="20.00">
        <vehicle id="v0" x="479.12" y="495.05" angle="90.00" type="DEFAULT_VEHTYPE" speed="7.48" pos="239.95" lane="1si_1" slope="0.00"/>
    </timestep>
    <timestep time="20.50">
        <vehicle id="v0" x="482.27" y="495.05" angle="90.00" type="DEFAULT_VEHTYPE" speed="5.80" pos="243.27" lane="1si_1" slope="0.00"/>
    </timestep>
    <timestep time="21.00">
        <vehicle id="v0" x="484.65" y="495.05" angle="90.00" type="DEFAULT_VEHTYPE" speed="4.24" pos="245.78" lane="1si_1" slope="0.00"/>
    </timestep>
    <timestep time="21.50">
        <vehicle id="v0" x="486.97" y="495.05" angle="90.00" type="DEFAULT_VEHTYPE" speed="5.54" pos="248.22" lane="1si_1" slope="0.00"/>
    </timestep>
    <timestep time="22.00">
        <vehicle id="v0" x="512.64" y="498.35" angle="83.15" type="DEFAULT_VEHTYPE" speed="6.84" pos="1.32" lane="2o_0" slope="0.00"/>
    </timestep>
    <timestep time="22.50">
        <vehicle id="v0" x="516.30" y="498.35" angle="90.00" type="DEFAULT_VEHTYPE" speed="8.14" pos="5.07" lane="2o_0" slope="0.00"/>
    </timestep>
    <timestep time="23.00">
        <vehicle id="v0" x="520.60" y="498.35" angle="90.00" type="DEFAULT_VEHTYPE" speed="9.44" pos="9.46" lane="2o_0" slope="0.00"/>
    </timestep>
    <timestep time="23.50">
        <vehicle id="v0" x="525.53" y="498.35" angle="90.00" type="DEFAULT_VEHTYPE" speed="10.74" pos="14.51" lane="2o_0" slope="0.00"/>
    </timestep>
    <timestep time="24.00">
        <vehicle id="v0" x="530.87" y="498.35" angle="90.00" type="DEFAULT_VEHTYPE" speed="11.11" pos="19.97" lane="2o_0" slope="0.00"/>
    </timestep>
    <timestep time="24.50">
        <vehicle id="v0" x="536.30" y="498.35" angle="90.00" type="DEFAULT_VEHTYPE" speed="11.11" pos="25.53" lane="2o_0" slope="0.00"/>
    </timestep>
    <timestep time="25.00">
        <vehicle id="v0" x="541.73" y="498.35" angle="90.00" type="DEFAULT_VEHTYPE" speed="11.11" pos="31.08" lane="2o_0" slope="0.00"/>
    </timestep>
    <timestep time="25.50">
        <vehicle id="v0" x="547.15" y="498.35" angle="90.00" type="DEFAULT_VEHTYPE" speed="11.11" pos="36.64" lane="2o_0" slope="0.00"/>
    </timestep>
    <timestep time="26.00">
        <vehicle id="v0" x="552.58" y="498.35" angle="90.00" type="DEFAULT_VEHTYPE" speed="11.11" pos="42.19" lane="2o_0" slope="0.00"/>
    </timestep>
    <timestep time="26.50">
        <vehicle id="v0" x="558.01" y="498.35" angle="90.00" type="DEFAULT_VEHTYPE" speed="11.11" pos="47.75" lane="2o_0" slope="0.00"/>
    </timestep>
    <timestep time="27.00">
        <vehicle id="v0" x="563.44" y="498.35" angle="90.00" type="DEFAULT_VEHTYPE" speed="11.11" pos="53.30" lane="2o_0" slope="0.00"/>
    </timestep>
    <timestep time="27.50">
        <vehicle id="v0" x="568.87" y="498.35" angle="90.00" type="DEFAULT_VEHTYPE" speed="11.11" pos="58.86" lane="2o_0" slope="0.00"/>
    </timestep>
    <timestep time="28.00">
        <vehicle id="v0" x="574.30" y="498.35" angle="90.00" type="DEFAULT_VEHTYPE" speed="11.11" pos="64.41" lane="2o_0" slope="0.00"/>
    </timestep>
    <timestep time="28.50">
        <vehicle id="v0" x="579.73" y="498.35" angle="90.00" type="DEFAULT_VEHTYPE" speed="11.11" pos="69.97" lane="2o_0" slope="0.00"/>
    </timestep>
    <timestep time="29.00">
        <vehicle id="v0" x="585.16" y="498.35" angle="90.00" type="DEFAULT_VEHTYPE" speed="11.11" pos="75.52" lane="2o_0" slope="0.00"/>
    </timestep>
    <timestep time="29.50">
        <vehicle id="v0" x="590.59" y="498.35" angle="90.00" type="DEFAULT_VEHTYPE" speed="11.11" pos="81.08" lane="2o_0" slope="0.00"/>
    </timestep>
    <timestep time="30.00">
        <vehicle id="v0" x="596.01" y="498.35" angle="90.00" type="DEFAULT_VEHTYPE" speed="11.11" pos="86.63" lane="2o_0" slope="0.00"/>
    </timestep>
    <timestep time="30.50">
        <vehicle id="v0" x="601.44" y="498.35" angle="90.00" type="DEFAULT_VEHTYPE" speed="11.11" pos="92.19" lane="2o_0" slope="0.00"/>
    </timestep>
    <timestep time="31.00">
        <vehicle id="v0" x="606.87" y="498.35" angle="90.00" type="DEFAULT_VEHTYPE" speed="11.11" pos="97.74" lane="2o_0" slope="0.00"/>
    </timestep>
    <timestep time="31.50">
        <vehicle id="v0" x="612.30" y="498.35" angle="90.00" type="DEFAULT_VEHTYPE" speed="11.11" pos="103.30" lane="2o_0" slope="0.00"/>
    </timestep>
    <timestep time="32.00">
        <vehicle id="v0" x="617.73" y="498.35" angle="90.00" type="DEFAULT_VEHTYPE" speed="11.11" pos="108.85" lane="2o_0" slope="0.00"/>
    </timestep>
    <timestep time="32.50">
        <vehicle id="v0" x="623.16" y="498.35" angle="90.00" type="DEFAULT_VEHTYPE" speed="11.11" pos="114.41" lane="2o_0" slope="0.00"/>
    </timestep>
    <timestep time="33.00">
        <vehicle id="v0" x="628.59" y="498.35" angle="90.00" type="DEFAULT_VEHTYPE" speed="11.11" pos="119.96" lane="2o_0" slope="0.00"/>
    </timestep>
    <timestep time="33.50">
        <vehicle id="v0" x="634.02" y="498.35" angle="90.00" type="DEFAULT_VEHTYPE" speed="11.11" pos="125.52" lane="2o_0" slope="0.00"/>
    </timestep>
    <timestep time="34.00">
        <vehicle id="v0" x="639.45" y="498.35" angle="90.00" type="DEFAULT_VEHTYPE" speed="11.11" pos="131.07" lane="2o_0" slope="0.00"/>
    </timestep>
    <timestep time="34.50">
        <vehicle id="v0" x="644.87" y="498.35" angle="90.00" type="DEFAULT_VEHTYPE" speed="11.11" pos="136.63" lane="2o_0" slope="0.00"/>
    </timestep>
    <timestep time="35.00">
        <vehicle id="v0" x="650.30" y="498.35" angle="90.00" type="DEFAULT_VEHTYPE" speed="11.11" pos="142.18" lane="2o_0" slope="0.00"/>
    </timestep>
    <timestep time="35.50">
        <vehicle id="v0" x="655.73" y="498.35" angle="90.00" type="DEFAULT_VEHTYPE" speed="11.11" pos="147.74" lane="2o_0" slope="0.00"/>
    </timestep>
    <timestep time="36.00">
        <vehicle id="v0" x="661.16" y="498.35" angle="90.00" type="DEFAULT_VEHTYPE" speed="11.11" pos="153.29" lane="2o_0" slope="0.00"/>
    </timestep>
    <timestep time="36.50">
        <vehicle id="v0" x="666.59" y="498.35" angle="90.00" type="DEFAULT_VEHTYPE" speed="11.11" pos="158.85" lane="2o_0" slope="0.00"/>
    </timestep>
    <timestep time="37.00">
        <vehicle id="v0" x="672.02" y="498.35" angle="90.00" type="DEFAULT_VEHTYPE" speed="11.11" pos="164.40" lane="2o_0" slope="0.00"/>
    </timestep>
    <timestep time="37.50">
        <vehicle id="v0" x="677.45" y="498.35" angle="90.00" type="DEFAULT_VEHTYPE" speed="11.11" pos="169.96" lane="2o_0" slope="0.00"/>
    </timestep>
    <timestep time="38.00">
        <vehicle id="v0" x="682.88" y="498.35" angle="90.00" type="DEFAULT_VEHTYPE" speed="11.11" pos="175.51" lane="2o_0" slope="0.00"/>
    </timestep>
    <timestep time="38.50">
        <vehicle id="v0" x="688.31" y="498.35" angle="90.00" type="DEFAULT_VEHTYPE" speed="11.11" pos="181.07" lane="2o_0" slope="0.00"/>
    </timestep>
    <timestep time="39.00">
        <vehicle id="v0" x="693.74" y="498.35" angle="90.00" type="DEFAULT_VEHTYPE" speed="11.11" pos="186.62" lane="2o_0" slope="0.00"/>
    </timestep>
    <timestep time="39.50">
        <vehicle id="v0" x="699.16" y="498.35" angle="90.00" type="DEFAULT_VEHTYPE" speed="11.11" pos="192.18" lane="2o_0" slope="0.00"/>
    </timestep>
    <timestep time="40.00">
        <vehicle id="v0" x="704.59" y="498.35" angle="90.00" type="DEFAULT_VEHTYPE" speed="11.11" pos="197.73" lane="2o_0" slope="0.00"/>
    </timestep>
    <timestep time="40.50">
        <vehicle id="v0" x="710.02" y="498.35" angle="90.00" type="DEFAULT_VEHTYPE" speed="11.11" pos="203.29" lane="2o_0" slope="0.00"/>
    </timestep>
    <timestep time="41.00">
        <vehicle id="v0" x="715.45" y="498.35" angle="90.00" type="DEFAULT_VEHTYPE" speed="11.11" pos="208.84" lane="2o_0" slope="0.00"/>
    </timestep>
    <timestep time="41.50">
        <vehicle id="v0" x="720.88" y="498.35" angle="90.00" type="DEFAULT_VEHTYPE" speed="11.11" pos="214.40" lane="2o_0" slope="0.00"/>
    </timestep>
    <timestep time="42.00">
        <vehicle id="v0" x="726.31" y="498.35" angle="90.00" type="DEFAULT_VEHTYPE" speed="11.11" pos="219.95" lane="2o_0" slope="0.00"/>
    </timestep>
    <timestep time="42.50">
        <vehicle id="v0" x="731.74" y="498.35" angle="90.00" type="DEFAULT_VEHTYPE" speed="11.11" pos="225.51" lane="2o_0" slope="0.00"/>
    </timestep>
    <timestep time="43.00">
        <vehicle id="v0" x="737.17" y="498.35" angle="90.00" type="DEFAULT_VEHTYPE" speed="11.11" pos="231.06" lane="2o_0" slope="0.00"/>
    </timestep>
    <timestep time="43.50">
        <vehicle id="v0" x="742.60" y="498.35" angle="90.00" type="DEFAULT_VEHTYPE" speed="11.11" pos="236.62" lane="2o_0" slope="0.00"/>
    </timestep>
    <timestep time="44.00">
        <vehicle id="v0" x="748.02" y="498.35" angle="90.00" type="DEFAULT_VEHTYPE" speed="11.11" pos="242.17" lane="2o_0" slope="0.00"/>
    </timestep>
    <timestep time="44.50">
        <vehicle id="v0" x="753.45" y="498.35" angle="90.00" type="DEFAULT_VEHTYPE" speed="11.11" pos="247.73" lane="2o_0" slope="0.00"/>
    </timestep>
    <timestep time="45.00">
        <vehicle id="v0" x="758.88" y="498.35" angle="90.00" type="DEFAULT_VEHTYPE" speed="11.11" pos="253.28" lane="2o_0" slope="0.00"/>
    </timestep>
    <timestep time="45.50">
        <vehicle id="v0" x="764.31" y="498.35" angle="90.00" type="DEFAULT_VEHTYPE" speed="11.11" pos="258.84" lane="2o_0" slope="0.00"/>
    </timestep>
    <timestep time="46.00">
        <vehicle id="v0" x="769.74" y="498.35" angle="90.00" type="DEFAULT_VEHTYPE" speed="11.11" pos="264.39" lane="2o_0" slope="0.00"/>
    </timestep>
    <timestep time="46.50">
        <vehicle id="v0" x="775.17" y="498.35" angle="90.00" type="DEFAULT_VEHTYPE" speed="11.11" pos="269.95" lane="2o_0" slope="0.00"/>
    </timestep>
    <timestep time="47.00">
        <vehicle id="v0" x="780.60" y="498.35" angle="90.00" type="DEFAULT_VEHTYPE" speed="11.11" pos="275.50" lane="2o_0" slope="0.00"/>
    </timestep>
    <timestep time="47.50">
        <vehicle id="v0" x="786.03" y="498.35" angle="90.00" type="DEFAULT_VEHTYPE" speed="11.11" pos="281.06" lane="2o_0" slope="0.00"/>
    </timestep>
    <timestep time="48.00">
        <vehicle id="v0" x="791.46" y="498.35" angle="90.00" type="DEFAULT_VEHTYPE" speed="11.11" pos="286.61" lane="2o_0" slope="0.00"/>
    </timestep>
    <timestep time="48.50">
        <vehicle id="v0" x="796.88" y="498.35" angle="90.00" type="DEFAULT_VEHTYPE" speed="11.11" pos="292.17" lane="2o_0" slope="0.00"/>
    </timestep>
    <timestep time="49.00">
        <vehicle id="v0" x="802.31" y="498.35" angle="90.00" type="DEFAULT_VEHTYPE" speed="11.11" pos="297.72" lane="2o_0" slope="0.00"/>
    </timestep>
    <timestep time="49.50">
        <vehicle id="v0" x="807.74" y="498.35" angle="90.00" type="DEFAULT_VEHTYPE" speed="11.11" pos="303.28" lane="2o_0" slope="0.00"/>
    </timestep>
    <timestep time="50.00">
        <vehicle id="v0" x="813.17" y="498.35" angle="90.00" type="DEFAULT_VEHTYPE" speed="11.11" pos="308.83" lane="2o_0" slope="0.00"/>
    </timestep>
    <timestep time="50.50">
        <vehicle id="v0" x="818.60" y="498.35" angle="90.00" type="DEFAULT_VEHTYPE" speed="11.11" pos="314.39" lane="2o_0" slope="0.00"/>
    </timestep>
    <timestep time="51.00">
        <vehicle id="v0" x="824.03" y="498.35" angle="90.00" type="DEFAULT_VEHTYPE" speed="11.11" pos="319.94" lane="2o_0" slope="0.00"/>
    </timestep>
    <timestep time="51.50">
        <vehicle id="v0" x="829.46" y="498.35" angle="90.00" type="DEFAULT_VEHTYPE" speed="11.11" pos="325.50" lane="2o_0" slope="0.00"/>
    </timestep>
    <timestep time="52.00">
        <vehicle id="v0" x="834.89" y="498.35" angle="90.00" type="DEFAULT_VEHTYPE" speed="11.11" pos="331.05" lane="2o_0" slope="0.00"/>
    </timestep>
    <timestep time="52.50">
        <vehicle id="v0" x="840.32" y="498.35" angle="90.00" type="DEFAULT_VEHTYPE" speed="11.11" pos="336.61" lane="2o_0" slope="0.00"/>
    </timestep>
    <timestep time="53.00">
        <vehicle id="v0" x="845.74" y="498.35" angle="90.00" type="DEFAULT_VEHTYPE" speed="11.11" pos="342.16" lane="2o_0" slope="0.00"/>
    </timestep>
    <timestep time="53.50">
        <vehicle id="v0" x="851.17" y="498.35" angle="90.00" type="DEFAULT_VEHTYPE" speed="11.11" pos="347.72" lane="2o_0" slope="0.00"/>
    </timestep>
    <timestep time="54.00">
        <vehicle id="v0" x="856.60" y="498.35" angle="90.00" type="DEFAULT_VEHTYPE" speed="11.11" pos="353.27" lane="2o_0" slope="0.00"/>
    </timestep>
    <timestep time="54.50">
        <vehicle id="v0" x="862.03" y="498.35" angle="90.00" type="DEFAULT_VEHTYPE" speed="11.11" pos="358.83" lane="2o_0" slope="0.00"/>
    </timestep>
    <timestep time="55.00">
        <vehicle id="v0" x="867.46" y="498.35" angle="90.00" type="DEFAULT_VEHTYPE" speed="11.11" pos="364.38" lane="2o_0" slope="0.00"/>
    </timestep>
    <timestep time="55.50">
        <vehicle id="v0" x="872.89" y="498.35" angle="90.00" type="DEFAULT_VEHTYPE" speed="11.11" pos="369.94" lane="2o_0" slope="0.00"/>
    </timestep>
    <timestep time="56.00">
        <vehicle id="v0" x="878.32" y="498.35" angle="90.00" type="DEFAULT_VEHTYPE" speed="11.11" pos="375.49" lane="2o_0" slope="0.00"/>
    </timestep>
    <timestep time="56.50">
        <vehicle id="v0" x="883.75" y="498.35" angle="90.00" type="DEFAULT_VEHTYPE" speed="11.11" pos="381.05" lane="2o_0" slope="0.00"/>
    </timestep>
    <timestep time="57.00">
        <vehicle id="v0" x="889.18" y="498.35" angle="90.00" type="DEFAULT_VEHTYPE" speed="11.11" pos="386.60" lane="2o_0" slope="0.00"/>
    </timestep>
    <timestep time="57.50">
        <vehicle id="v0" x="894.60" y="498.35" angle="90.00" type="DEFAULT_VEHTYPE" speed="11.11" pos="392.16" lane="2o_0" slope="0.00"/>
    </timestep>
    <timestep time="58.00">
        <vehicle id="v0" x="900.03" y="498.35" angle="90.00" type="DEFAULT_VEHTYPE" speed="11.11" pos="397.71" lane="2o_0" slope="0.00"/>
    </timestep>
    <timestep time="58.50">
        <vehicle id="v0" x="905.46" y="498.35" angle="90.00" type="DEFAULT_VEHTYPE" speed="11.11" pos="403.27" lane="2o_0" slope="0.00"/>
    </timestep>
    <timestep time="59.00">
        <vehicle id="v0" x="910.89" y="498.35" angle="90.00" type="DEFAULT_VEHTYPE" speed="11.11" pos="408.82" lane="2o_0" slope="0.00"/>
    </timestep>
    <timestep time="59.50">
        <vehicle id="v0" x="916.32" y="498.35" angle="90.00" type="DEFAULT_VEHTYPE" speed="11.11" pos="414.38" lane="2o_0" slope="0.00"/>
    </timestep>
    <timestep time="60.00">
        <vehicle id="v0" x="921.75" y="498.35" angle="90.00" type="DEFAULT_VEHTYPE" speed="11.11" pos="419.93" lane="2o_0" slope="0.00"/>
    </timestep>
    <timestep time="60.50">
        <vehicle id="v0" x="927.18" y="498.35" angle="90.00" type="DEFAULT_VEHTYPE" speed="11.11" pos="425.49" lane="2o_0" slope="0.00"/>
    </timestep>
    <timestep time="61.00">
        <vehicle id="v0" x="932.61" y="498.35" angle="90.00" type="DEFAULT_VEHTYPE" speed="11.11" pos="431.04" lane="2o_0" slope="0.00"/>
    </timestep>
    <timestep time="61.50">
        <vehicle id="v0" x="938.04" y="498.35" angle="90.00" type="DEFAULT_VEHTYPE" speed="11.11" pos="436.60" lane="2o_0" slope="0.00"/>
    </timestep>
    <timestep time="62.00">
        <vehicle id="v0" x="943.46" y="498.35" angle="90.00" type="DEFAULT_VEHTYPE" speed="11.11" pos="442.15" lane="2o_0" slope="0.00"/>
    </timestep>
    <timestep time="62.50">
        <vehicle id="v0" x="948.89" y="498.35" angle="90.00" type="DEFAULT_VEHTYPE" speed="11.11" pos="447.71" lane="2o_0" slope="0.00"/>
    </timestep>
    <timestep time="63.00">
        <vehicle id="v0" x="954.32" y="498.35" angle="90.00" type="DEFAULT_VEHTYPE" speed="11.11" pos="453.26" lane="2o_0" slope="0.00"/>
    </timestep>
    <timestep time="63.50">
        <vehicle id="v0" x="959.75" y="498.35" angle="90.00" type="DEFAULT_VEHTYPE" speed="11.11" pos="458.82" lane="2o_0" slope="0.00"/>
    </timestep>
    <timestep time="64.00">
        <vehicle id="v0" x="965.18" y="498.35" angle="90.00" type="DEFAULT_VEHTYPE" speed="11.11" pos="464.37" lane="2o_0" slope="0.00"/>
    </timestep>
    <timestep time="64.50">
        <vehicle id="v0" x="970.61" y="498.35" angle="90.00" type="DEFAULT_VEHTYPE" speed="11.11" pos="469.93" lane="2o_0" slope="0.00"/>
    </timestep>
    <timestep time="65.00">
        <vehicle id="v0" x="976.04" y="498.35" angle="90.00" type="DEFAULT_VEHTYPE" speed="11.11" pos="475.48" lane="2o_0" slope="0.00"/>
    </timestep>
    <timestep time="65.50">
        <vehicle id="v0" x="981.47" y="498.35" angle="90.00" type="DEFAULT_VEHTYPE" speed="11.11" pos="481.04" lane="2o_0" slope="0.00"/>
    </timestep>
    <timestep time="66.00">
        <vehicle id="v0" x="986.90" y="498.35" angle="90.00" type="DEFAULT_VEHTYPE" speed="11.11" pos="486.59" lane="2o_0" slope="0.00"/>
    </timestep>
    <timestep time="66.50">
        <vehicle id="v0" x="992.32" y="498.35" angle="90.00" type="DEFAULT_VEHTYPE" speed="11.11" pos="492.15" lane="2o_0" slope="0.00"/>
    </timestep>
    <timestep time="67.00">
        <vehicle id="v0" x="997.75" y="498.35" angle="90.00" type="DEFAULT_VEHTYPE" speed="11.11" pos="497.70" lane="2o_0" slope="0.00"/>
    </timestep>
    <timestep time="67.50"/>
</fcd-export>
