<?xml version="1.0" encoding="UTF-8"?>

<!-- generated on Tue Sep 13 12:06:57 2016 by SUMO Version dev-SVN-r21424
<?xml version="1.0" encoding="UTF-8"?>

<configuration xmlns:xsi="http://www.w3.org/2001/XMLSchema-instance" xsi:noNamespaceSchemaLocation="http://sumo.dlr.de/xsd/sumoConfiguration.xsd">

    <input>
        <net-file value="net.net.xml"/>
        <route-files value="input_routes.rou.xml"/>
        <additional-files value="input_additional.add.xml"/>
    </input>

    <output>
        <fcd-output value="fcd.xml"/>
    </output>

    <time>
        <step-length value="0.5"/>
    </time>

    <processing>
        <step-method.ballistic value="true"/>
        <lanechange.duration value="10"/>
    </processing>

    <report>
        <xml-validation value="never"/>
        <duration-log.disable value="true"/>
        <no-step-log value="true"/>
    </report>

</configuration>
-->

<fcd-export xmlns:xsi="http://www.w3.org/2001/XMLSchema-instance" xsi:noNamespaceSchemaLocation="http://sumo.dlr.de/xsd/fcd_file.xsd">
    <timestep time="0.00">
        <vehicle id="v0" x="256.34" y="491.75" angle="90.00" type="DEFAULT_VEHTYPE" speed="0.00" pos="5.10" lane="1si_0" slope="0.00"/>
    </timestep>
    <timestep time="0.50">
        <vehicle id="v0" x="256.65" y="491.75" angle="90.00" type="DEFAULT_VEHTYPE" speed="1.30" pos="5.42" lane="1si_0" slope="0.00"/>
    </timestep>
    <timestep time="1.00">
        <vehicle id="v0" x="257.57" y="491.75" angle="90.00" type="DEFAULT_VEHTYPE" speed="2.60" pos="6.40" lane="1si_0" slope="0.00"/>
    </timestep>
    <timestep time="1.50">
        <vehicle id="v0" x="259.11" y="491.75" angle="90.00" type="DEFAULT_VEHTYPE" speed="3.90" pos="8.03" lane="1si_0" slope="0.00"/>
    </timestep>
    <timestep time="2.00">
        <vehicle id="v0" x="261.27" y="491.75" angle="90.00" type="DEFAULT_VEHTYPE" speed="5.20" pos="10.30" lane="1si_0" slope="0.00"/>
    </timestep>
    <timestep time="2.50">
        <vehicle id="v0" x="264.05" y="491.75" angle="90.00" type="DEFAULT_VEHTYPE" speed="6.50" pos="13.23" lane="1si_0" slope="0.00"/>
    </timestep>
    <timestep time="3.00">
        <vehicle id="v0" x="267.44" y="491.75" angle="90.00" type="DEFAULT_VEHTYPE" speed="7.80" pos="16.80" lane="1si_0" slope="0.00"/>
    </timestep>
    <timestep time="3.50">
        <vehicle id="v0" x="271.44" y="491.75" angle="90.00" type="DEFAULT_VEHTYPE" speed="9.10" pos="21.02" lane="1si_0" slope="0.00"/>
    </timestep>
    <timestep time="4.00">
        <vehicle id="v0" x="276.07" y="491.75" angle="90.00" type="DEFAULT_VEHTYPE" speed="10.40" pos="25.90" lane="1si_0" slope="0.00"/>
    </timestep>
    <timestep time="4.50">
        <vehicle id="v0" x="281.31" y="491.91" angle="89.70" type="DEFAULT_VEHTYPE" speed="11.70" pos="31.42" lane="1si_0" slope="0.00"/>
    </timestep>
    <timestep time="5.00">
        <vehicle id="v0" x="287.17" y="492.07" angle="89.40" type="DEFAULT_VEHTYPE" speed="13.00" pos="37.60" lane="1si_0" slope="0.00"/>
    </timestep>
    <timestep time="5.50">
        <vehicle id="v0" x="293.54" y="492.23" angle="89.10" type="DEFAULT_VEHTYPE" speed="13.89" pos="44.32" lane="1si_0" slope="0.00"/>
    </timestep>
    <timestep time="6.00">
        <vehicle id="v0" x="300.13" y="492.39" angle="88.80" type="DEFAULT_VEHTYPE" speed="13.89" pos="51.27" lane="1si_0" slope="0.00"/>
    </timestep>
    <timestep time="6.50">
        <vehicle id="v0" x="306.72" y="492.55" angle="88.50" type="DEFAULT_VEHTYPE" speed="13.89" pos="58.21" lane="1si_0" slope="0.00"/>
    </timestep>
    <timestep time="7.00">
        <vehicle id="v0" x="313.31" y="492.71" angle="88.20" type="DEFAULT_VEHTYPE" speed="13.89" pos="65.16" lane="1si_0" slope="0.00"/>
    </timestep>
    <timestep time="7.50">
        <vehicle id="v0" x="319.90" y="492.87" angle="87.90" type="DEFAULT_VEHTYPE" speed="13.89" pos="72.10" lane="1si_0" slope="0.00"/>
    </timestep>
    <timestep time="8.00">
        <vehicle id="v0" x="326.48" y="493.03" angle="87.60" type="DEFAULT_VEHTYPE" speed="13.89" pos="79.05" lane="1si_0" slope="0.00"/>
    </timestep>
    <timestep time="8.50">
        <vehicle id="v0" x="333.07" y="493.19" angle="87.30" type="DEFAULT_VEHTYPE" speed="13.89" pos="85.99" lane="1si_0" slope="0.00"/>
    </timestep>
    <timestep time="9.00">
        <vehicle id="v0" x="339.66" y="493.35" angle="87.00" type="DEFAULT_VEHTYPE" speed="13.89" pos="92.94" lane="1si_0" slope="0.00"/>
    </timestep>
    <timestep time="9.50">
        <vehicle id="v0" x="346.25" y="493.61" angle="87.30" type="DEFAULT_VEHTYPE" speed="13.89" pos="99.88" lane="1si_1" slope="0.00"/>
    </timestep>
    <timestep time="10.00">
        <vehicle id="v0" x="352.84" y="493.77" angle="87.60" type="DEFAULT_VEHTYPE" speed="13.89" pos="106.83" lane="1si_1" slope="0.00"/>
    </timestep>
    <timestep time="10.50">
        <vehicle id="v0" x="359.42" y="493.93" angle="87.90" type="DEFAULT_VEHTYPE" speed="13.89" pos="113.77" lane="1si_1" slope="0.00"/>
    </timestep>
    <timestep time="11.00">
        <vehicle id="v0" x="366.01" y="494.09" angle="88.20" type="DEFAULT_VEHTYPE" speed="13.89" pos="120.72" lane="1si_1" slope="0.00"/>
    </timestep>
    <timestep time="11.50">
        <vehicle id="v0" x="372.60" y="494.25" angle="88.50" type="DEFAULT_VEHTYPE" speed="13.89" pos="127.66" lane="1si_1" slope="0.00"/>
    </timestep>
    <timestep time="12.00">
        <vehicle id="v0" x="379.19" y="494.41" angle="88.80" type="DEFAULT_VEHTYPE" speed="13.89" pos="134.61" lane="1si_1" slope="0.00"/>
    </timestep>
    <timestep time="12.50">
        <vehicle id="v0" x="385.78" y="494.57" angle="89.10" type="DEFAULT_VEHTYPE" speed="13.89" pos="141.55" lane="1si_1" slope="0.00"/>
    </timestep>
    <timestep time="13.00">
        <vehicle id="v0" x="392.36" y="494.73" angle="89.40" type="DEFAULT_VEHTYPE" speed="13.89" pos="148.50" lane="1si_1" slope="0.00"/>
    </timestep>
    <timestep time="13.50">
        <vehicle id="v0" x="398.95" y="494.89" angle="89.70" type="DEFAULT_VEHTYPE" speed="13.89" pos="155.44" lane="1si_1" slope="0.00"/>
    </timestep>
    <timestep time="14.00">
        <vehicle id="v0" x="405.54" y="495.05" angle="90.00" type="DEFAULT_VEHTYPE" speed="13.89" pos="162.39" lane="1si_1" slope="0.00"/>
    </timestep>
    <timestep time="14.50">
        <vehicle id="v0" x="412.13" y="495.05" angle="90.00" type="DEFAULT_VEHTYPE" speed="13.89" pos="169.33" lane="1si_1" slope="0.00"/>
    </timestep>
    <timestep time="15.00">
        <vehicle id="v0" x="418.72" y="495.05" angle="90.00" type="DEFAULT_VEHTYPE" speed="13.89" pos="176.28" lane="1si_1" slope="0.00"/>
    </timestep>
    <timestep time="15.50">
        <vehicle id="v0" x="425.30" y="495.05" angle="90.00" type="DEFAULT_VEHTYPE" speed="13.89" pos="183.22" lane="1si_1" slope="0.00"/>
    </timestep>
    <timestep time="16.00">
        <vehicle id="v0" x="431.89" y="495.05" angle="90.00" type="DEFAULT_VEHTYPE" speed="13.89" pos="190.17" lane="1si_1" slope="0.00"/>
    </timestep>
    <timestep time="16.50">
        <vehicle id="v0" x="438.48" y="495.05" angle="90.00" type="DEFAULT_VEHTYPE" speed="13.89" pos="197.11" lane="1si_1" slope="0.00"/>
    </timestep>
    <timestep time="17.00">
        <vehicle id="v0" x="445.07" y="495.05" angle="90.00" type="DEFAULT_VEHTYPE" speed="13.89" pos="204.06" lane="1si_1" slope="0.00"/>
    </timestep>
    <timestep time="17.50">
        <vehicle id="v0" x="451.66" y="495.05" angle="90.00" type="DEFAULT_VEHTYPE" speed="13.89" pos="211.00" lane="1si_1" slope="0.00"/>
    </timestep>
    <timestep time="18.00">
        <vehicle id="v0" x="458.24" y="495.05" angle="90.00" type="DEFAULT_VEHTYPE" speed="13.89" pos="217.95" lane="1si_1" slope="0.00"/>
    </timestep>
    <timestep time="18.50">
        <vehicle id="v0" x="464.72" y="495.05" angle="90.00" type="DEFAULT_VEHTYPE" speed="13.40" pos="224.77" lane="1si_1" slope="0.00"/>
    </timestep>
    <timestep time="19.00">
        <vehicle id="v0" x="470.77" y="495.05" angle="90.00" type="DEFAULT_VEHTYPE" speed="12.11" pos="231.15" lane="1si_1" slope="0.00"/>
    </timestep>
    <timestep time="19.50">
        <vehicle id="v0" x="476.11" y="495.05" angle="90.00" type="DEFAULT_VEHTYPE" speed="10.39" pos="236.78" lane="1si_1" slope="0.00"/>
    </timestep>
    <timestep time="20.00">
        <vehicle id="v0" x="480.57" y="495.05" angle="90.00" type="DEFAULT_VEHTYPE" speed="8.44" pos="241.49" lane="1si_1" slope="0.00"/>
    </timestep>
    <timestep time="20.50">
        <vehicle id="v0" x="484.09" y="495.05" angle="90.00" type="DEFAULT_VEHTYPE" speed="6.37" pos="245.19" lane="1si_1" slope="0.00"/>
    </timestep>
    <timestep time="21.00">
        <vehicle id="v0" x="486.60" y="495.05" angle="90.00" type="DEFAULT_VEHTYPE" speed="4.23" pos="247.84" lane="1si_1" slope="0.00"/>
    </timestep>
    <timestep time="21.50">
        <vehicle id="v0" x="511.62" y="498.35" angle="83.15" type="DEFAULT_VEHTYPE" speed="5.53" pos="0.27" lane="2o_0" slope="0.00"/>
    </timestep>
    <timestep time="22.00">
        <vehicle id="v0" x="514.64" y="498.35" angle="83.17" type="DEFAULT_VEHTYPE" speed="6.83" pos="3.36" lane="2o_0" slope="0.00"/>
    </timestep>
    <timestep time="22.50">
        <vehicle id="v0" x="518.29" y="498.35" angle="90.00" type="DEFAULT_VEHTYPE" speed="8.13" pos="7.10" lane="2o_0" slope="0.00"/>
    </timestep>
    <timestep time="23.00">
        <vehicle id="v0" x="522.58" y="498.35" angle="90.00" type="DEFAULT_VEHTYPE" speed="9.43" pos="11.49" lane="2o_0" slope="0.00"/>
    </timestep>
    <timestep time="23.50">
        <vehicle id="v0" x="527.50" y="498.35" angle="90.00" type="DEFAULT_VEHTYPE" speed="10.73" pos="16.53" lane="2o_0" slope="0.00"/>
    </timestep>
    <timestep time="24.00">
        <vehicle id="v0" x="532.84" y="498.35" angle="90.00" type="DEFAULT_VEHTYPE" speed="11.11" pos="21.99" lane="2o_0" slope="0.00"/>
    </timestep>
    <timestep time="24.50">
        <vehicle id="v0" x="538.27" y="498.35" angle="90.00" type="DEFAULT_VEHTYPE" speed="11.11" pos="27.54" lane="2o_0" slope="0.00"/>
    </timestep>
    <timestep time="25.00">
        <vehicle id="v0" x="543.70" y="498.35" angle="90.00" type="DEFAULT_VEHTYPE" speed="11.11" pos="33.10" lane="2o_0" slope="0.00"/>
    </timestep>
    <timestep time="25.50">
        <vehicle id="v0" x="549.13" y="498.35" angle="90.00" type="DEFAULT_VEHTYPE" speed="11.11" pos="38.65" lane="2o_0" slope="0.00"/>
    </timestep>
    <timestep time="26.00">
        <vehicle id="v0" x="554.55" y="498.35" angle="90.00" type="DEFAULT_VEHTYPE" speed="11.11" pos="44.21" lane="2o_0" slope="0.00"/>
    </timestep>
    <timestep time="26.50">
        <vehicle id="v0" x="559.98" y="498.35" angle="90.00" type="DEFAULT_VEHTYPE" speed="11.11" pos="49.76" lane="2o_0" slope="0.00"/>
    </timestep>
    <timestep time="27.00">
        <vehicle id="v0" x="565.41" y="498.35" angle="90.00" type="DEFAULT_VEHTYPE" speed="11.11" pos="55.32" lane="2o_0" slope="0.00"/>
    </timestep>
    <timestep time="27.50">
        <vehicle id="v0" x="570.84" y="498.35" angle="90.00" type="DEFAULT_VEHTYPE" speed="11.11" pos="60.87" lane="2o_0" slope="0.00"/>
    </timestep>
    <timestep time="28.00">
        <vehicle id="v0" x="576.27" y="498.35" angle="90.00" type="DEFAULT_VEHTYPE" speed="11.11" pos="66.43" lane="2o_0" slope="0.00"/>
    </timestep>
    <timestep time="28.50">
        <vehicle id="v0" x="581.70" y="498.35" angle="90.00" type="DEFAULT_VEHTYPE" speed="11.11" pos="71.98" lane="2o_0" slope="0.00"/>
    </timestep>
    <timestep time="29.00">
        <vehicle id="v0" x="587.13" y="498.35" angle="90.00" type="DEFAULT_VEHTYPE" speed="11.11" pos="77.54" lane="2o_0" slope="0.00"/>
    </timestep>
    <timestep time="29.50">
        <vehicle id="v0" x="592.56" y="498.35" angle="90.00" type="DEFAULT_VEHTYPE" speed="11.11" pos="83.09" lane="2o_0" slope="0.00"/>
    </timestep>
    <timestep time="30.00">
        <vehicle id="v0" x="597.99" y="498.35" angle="90.00" type="DEFAULT_VEHTYPE" speed="11.11" pos="88.65" lane="2o_0" slope="0.00"/>
    </timestep>
    <timestep time="30.50">
        <vehicle id="v0" x="603.41" y="498.35" angle="90.00" type="DEFAULT_VEHTYPE" speed="11.11" pos="94.20" lane="2o_0" slope="0.00"/>
    </timestep>
    <timestep time="31.00">
        <vehicle id="v0" x="608.84" y="498.35" angle="90.00" type="DEFAULT_VEHTYPE" speed="11.11" pos="99.76" lane="2o_0" slope="0.00"/>
    </timestep>
    <timestep time="31.50">
        <vehicle id="v0" x="614.27" y="498.35" angle="90.00" type="DEFAULT_VEHTYPE" speed="11.11" pos="105.31" lane="2o_0" slope="0.00"/>
    </timestep>
    <timestep time="32.00">
        <vehicle id="v0" x="619.70" y="498.35" angle="90.00" type="DEFAULT_VEHTYPE" speed="11.11" pos="110.87" lane="2o_0" slope="0.00"/>
    </timestep>
    <timestep time="32.50">
        <vehicle id="v0" x="625.13" y="498.35" angle="90.00" type="DEFAULT_VEHTYPE" speed="11.11" pos="116.42" lane="2o_0" slope="0.00"/>
    </timestep>
    <timestep time="33.00">
        <vehicle id="v0" x="630.56" y="498.35" angle="90.00" type="DEFAULT_VEHTYPE" speed="11.11" pos="121.98" lane="2o_0" slope="0.00"/>
    </timestep>
    <timestep time="33.50">
        <vehicle id="v0" x="635.99" y="498.35" angle="90.00" type="DEFAULT_VEHTYPE" speed="11.11" pos="127.53" lane="2o_0" slope="0.00"/>
    </timestep>
    <timestep time="34.00">
        <vehicle id="v0" x="641.42" y="498.35" angle="90.00" type="DEFAULT_VEHTYPE" speed="11.11" pos="133.09" lane="2o_0" slope="0.00"/>
    </timestep>
    <timestep time="34.50">
        <vehicle id="v0" x="646.85" y="498.35" angle="90.00" type="DEFAULT_VEHTYPE" speed="11.11" pos="138.64" lane="2o_0" slope="0.00"/>
    </timestep>
    <timestep time="35.00">
        <vehicle id="v0" x="652.27" y="498.35" angle="90.00" type="DEFAULT_VEHTYPE" speed="11.11" pos="144.20" lane="2o_0" slope="0.00"/>
    </timestep>
    <timestep time="35.50">
        <vehicle id="v0" x="657.70" y="498.35" angle="90.00" type="DEFAULT_VEHTYPE" speed="11.11" pos="149.75" lane="2o_0" slope="0.00"/>
    </timestep>
    <timestep time="36.00">
        <vehicle id="v0" x="663.13" y="498.35" angle="90.00" type="DEFAULT_VEHTYPE" speed="11.11" pos="155.31" lane="2o_0" slope="0.00"/>
    </timestep>
    <timestep time="36.50">
        <vehicle id="v0" x="668.56" y="498.35" angle="90.00" type="DEFAULT_VEHTYPE" speed="11.11" pos="160.86" lane="2o_0" slope="0.00"/>
    </timestep>
    <timestep time="37.00">
        <vehicle id="v0" x="673.99" y="498.35" angle="90.00" type="DEFAULT_VEHTYPE" speed="11.11" pos="166.42" lane="2o_0" slope="0.00"/>
    </timestep>
    <timestep time="37.50">
        <vehicle id="v0" x="679.42" y="498.35" angle="90.00" type="DEFAULT_VEHTYPE" speed="11.11" pos="171.97" lane="2o_0" slope="0.00"/>
    </timestep>
    <timestep time="38.00">
        <vehicle id="v0" x="684.85" y="498.35" angle="90.00" type="DEFAULT_VEHTYPE" speed="11.11" pos="177.53" lane="2o_0" slope="0.00"/>
    </timestep>
    <timestep time="38.50">
        <vehicle id="v0" x="690.28" y="498.35" angle="90.00" type="DEFAULT_VEHTYPE" speed="11.11" pos="183.08" lane="2o_0" slope="0.00"/>
    </timestep>
    <timestep time="39.00">
        <vehicle id="v0" x="695.71" y="498.35" angle="90.00" type="DEFAULT_VEHTYPE" speed="11.11" pos="188.64" lane="2o_0" slope="0.00"/>
    </timestep>
    <timestep time="39.50">
        <vehicle id="v0" x="701.13" y="498.35" angle="90.00" type="DEFAULT_VEHTYPE" speed="11.11" pos="194.19" lane="2o_0" slope="0.00"/>
    </timestep>
    <timestep time="40.00">
        <vehicle id="v0" x="706.56" y="498.35" angle="90.00" type="DEFAULT_VEHTYPE" speed="11.11" pos="199.75" lane="2o_0" slope="0.00"/>
    </timestep>
    <timestep time="40.50">
        <vehicle id="v0" x="711.99" y="498.35" angle="90.00" type="DEFAULT_VEHTYPE" speed="11.11" pos="205.30" lane="2o_0" slope="0.00"/>
    </timestep>
    <timestep time="41.00">
        <vehicle id="v0" x="717.42" y="498.35" angle="90.00" type="DEFAULT_VEHTYPE" speed="11.11" pos="210.86" lane="2o_0" slope="0.00"/>
    </timestep>
    <timestep time="41.50">
        <vehicle id="v0" x="722.85" y="498.35" angle="90.00" type="DEFAULT_VEHTYPE" speed="11.11" pos="216.41" lane="2o_0" slope="0.00"/>
    </timestep>
    <timestep time="42.00">
        <vehicle id="v0" x="728.28" y="498.35" angle="90.00" type="DEFAULT_VEHTYPE" speed="11.11" pos="221.97" lane="2o_0" slope="0.00"/>
    </timestep>
    <timestep time="42.50">
        <vehicle id="v0" x="733.71" y="498.35" angle="90.00" type="DEFAULT_VEHTYPE" speed="11.11" pos="227.52" lane="2o_0" slope="0.00"/>
    </timestep>
    <timestep time="43.00">
        <vehicle id="v0" x="739.14" y="498.35" angle="90.00" type="DEFAULT_VEHTYPE" speed="11.11" pos="233.08" lane="2o_0" slope="0.00"/>
    </timestep>
    <timestep time="43.50">
        <vehicle id="v0" x="744.57" y="498.35" angle="90.00" type="DEFAULT_VEHTYPE" speed="11.11" pos="238.63" lane="2o_0" slope="0.00"/>
    </timestep>
    <timestep time="44.00">
        <vehicle id="v0" x="749.99" y="498.35" angle="90.00" type="DEFAULT_VEHTYPE" speed="11.11" pos="244.19" lane="2o_0" slope="0.00"/>
    </timestep>
    <timestep time="44.50">
        <vehicle id="v0" x="755.42" y="498.35" angle="90.00" type="DEFAULT_VEHTYPE" speed="11.11" pos="249.74" lane="2o_0" slope="0.00"/>
    </timestep>
    <timestep time="45.00">
        <vehicle id="v0" x="760.85" y="498.35" angle="90.00" type="DEFAULT_VEHTYPE" speed="11.11" pos="255.30" lane="2o_0" slope="0.00"/>
    </timestep>
    <timestep time="45.50">
        <vehicle id="v0" x="766.28" y="498.35" angle="90.00" type="DEFAULT_VEHTYPE" speed="11.11" pos="260.85" lane="2o_0" slope="0.00"/>
    </timestep>
    <timestep time="46.00">
        <vehicle id="v0" x="771.71" y="498.35" angle="90.00" type="DEFAULT_VEHTYPE" speed="11.11" pos="266.41" lane="2o_0" slope="0.00"/>
    </timestep>
    <timestep time="46.50">
        <vehicle id="v0" x="777.14" y="498.35" angle="90.00" type="DEFAULT_VEHTYPE" speed="11.11" pos="271.96" lane="2o_0" slope="0.00"/>
    </timestep>
    <timestep time="47.00">
        <vehicle id="v0" x="782.57" y="498.35" angle="90.00" type="DEFAULT_VEHTYPE" speed="11.11" pos="277.52" lane="2o_0" slope="0.00"/>
    </timestep>
    <timestep time="47.50">
        <vehicle id="v0" x="788.00" y="498.35" angle="90.00" type="DEFAULT_VEHTYPE" speed="11.11" pos="283.07" lane="2o_0" slope="0.00"/>
    </timestep>
    <timestep time="48.00">
        <vehicle id="v0" x="793.43" y="498.35" angle="90.00" type="DEFAULT_VEHTYPE" speed="11.11" pos="288.63" lane="2o_0" slope="0.00"/>
    </timestep>
    <timestep time="48.50">
        <vehicle id="v0" x="798.85" y="498.35" angle="90.00" type="DEFAULT_VEHTYPE" speed="11.11" pos="294.18" lane="2o_0" slope="0.00"/>
    </timestep>
    <timestep time="49.00">
        <vehicle id="v0" x="804.28" y="498.35" angle="90.00" type="DEFAULT_VEHTYPE" speed="11.11" pos="299.74" lane="2o_0" slope="0.00"/>
    </timestep>
    <timestep time="49.50">
        <vehicle id="v0" x="809.71" y="498.35" angle="90.00" type="DEFAULT_VEHTYPE" speed="11.11" pos="305.29" lane="2o_0" slope="0.00"/>
    </timestep>
    <timestep time="50.00">
        <vehicle id="v0" x="815.14" y="498.35" angle="90.00" type="DEFAULT_VEHTYPE" speed="11.11" pos="310.85" lane="2o_0" slope="0.00"/>
    </timestep>
    <timestep time="50.50">
        <vehicle id="v0" x="820.57" y="498.35" angle="90.00" type="DEFAULT_VEHTYPE" speed="11.11" pos="316.40" lane="2o_0" slope="0.00"/>
    </timestep>
    <timestep time="51.00">
        <vehicle id="v0" x="826.00" y="498.35" angle="90.00" type="DEFAULT_VEHTYPE" speed="11.11" pos="321.96" lane="2o_0" slope="0.00"/>
    </timestep>
    <timestep time="51.50">
        <vehicle id="v0" x="831.43" y="498.35" angle="90.00" type="DEFAULT_VEHTYPE" speed="11.11" pos="327.51" lane="2o_0" slope="0.00"/>
    </timestep>
    <timestep time="52.00">
        <vehicle id="v0" x="836.86" y="498.35" angle="90.00" type="DEFAULT_VEHTYPE" speed="11.11" pos="333.07" lane="2o_0" slope="0.00"/>
    </timestep>
    <timestep time="52.50">
        <vehicle id="v0" x="842.29" y="498.35" angle="90.00" type="DEFAULT_VEHTYPE" speed="11.11" pos="338.62" lane="2o_0" slope="0.00"/>
    </timestep>
    <timestep time="53.00">
        <vehicle id="v0" x="847.72" y="498.35" angle="90.00" type="DEFAULT_VEHTYPE" speed="11.11" pos="344.18" lane="2o_0" slope="0.00"/>
    </timestep>
    <timestep time="53.50">
        <vehicle id="v0" x="853.14" y="498.35" angle="90.00" type="DEFAULT_VEHTYPE" speed="11.11" pos="349.73" lane="2o_0" slope="0.00"/>
    </timestep>
    <timestep time="54.00">
        <vehicle id="v0" x="858.57" y="498.35" angle="90.00" type="DEFAULT_VEHTYPE" speed="11.11" pos="355.29" lane="2o_0" slope="0.00"/>
    </timestep>
    <timestep time="54.50">
        <vehicle id="v0" x="864.00" y="498.35" angle="90.00" type="DEFAULT_VEHTYPE" speed="11.11" pos="360.84" lane="2o_0" slope="0.00"/>
    </timestep>
    <timestep time="55.00">
        <vehicle id="v0" x="869.43" y="498.35" angle="90.00" type="DEFAULT_VEHTYPE" speed="11.11" pos="366.40" lane="2o_0" slope="0.00"/>
    </timestep>
    <timestep time="55.50">
        <vehicle id="v0" x="874.86" y="498.35" angle="90.00" type="DEFAULT_VEHTYPE" speed="11.11" pos="371.95" lane="2o_0" slope="0.00"/>
    </timestep>
    <timestep time="56.00">
        <vehicle id="v0" x="880.29" y="498.35" angle="90.00" type="DEFAULT_VEHTYPE" speed="11.11" pos="377.51" lane="2o_0" slope="0.00"/>
    </timestep>
    <timestep time="56.50">
        <vehicle id="v0" x="885.72" y="498.35" angle="90.00" type="DEFAULT_VEHTYPE" speed="11.11" pos="383.06" lane="2o_0" slope="0.00"/>
    </timestep>
    <timestep time="57.00">
        <vehicle id="v0" x="891.15" y="498.35" angle="90.00" type="DEFAULT_VEHTYPE" speed="11.11" pos="388.62" lane="2o_0" slope="0.00"/>
    </timestep>
    <timestep time="57.50">
        <vehicle id="v0" x="896.58" y="498.35" angle="90.00" type="DEFAULT_VEHTYPE" speed="11.11" pos="394.17" lane="2o_0" slope="0.00"/>
    </timestep>
    <timestep time="58.00">
        <vehicle id="v0" x="902.00" y="498.35" angle="90.00" type="DEFAULT_VEHTYPE" speed="11.11" pos="399.73" lane="2o_0" slope="0.00"/>
    </timestep>
    <timestep time="58.50">
        <vehicle id="v0" x="907.43" y="498.35" angle="90.00" type="DEFAULT_VEHTYPE" speed="11.11" pos="405.28" lane="2o_0" slope="0.00"/>
    </timestep>
    <timestep time="59.00">
        <vehicle id="v0" x="912.86" y="498.35" angle="90.00" type="DEFAULT_VEHTYPE" speed="11.11" pos="410.84" lane="2o_0" slope="0.00"/>
    </timestep>
    <timestep time="59.50">
        <vehicle id="v0" x="918.29" y="498.35" angle="90.00" type="DEFAULT_VEHTYPE" speed="11.11" pos="416.39" lane="2o_0" slope="0.00"/>
    </timestep>
    <timestep time="60.00">
        <vehicle id="v0" x="923.72" y="498.35" angle="90.00" type="DEFAULT_VEHTYPE" speed="11.11" pos="421.95" lane="2o_0" slope="0.00"/>
    </timestep>
    <timestep time="60.50">
        <vehicle id="v0" x="929.15" y="498.35" angle="90.00" type="DEFAULT_VEHTYPE" speed="11.11" pos="427.50" lane="2o_0" slope="0.00"/>
    </timestep>
    <timestep time="61.00">
        <vehicle id="v0" x="934.58" y="498.35" angle="90.00" type="DEFAULT_VEHTYPE" speed="11.11" pos="433.06" lane="2o_0" slope="0.00"/>
    </timestep>
    <timestep time="61.50">
        <vehicle id="v0" x="940.01" y="498.35" angle="90.00" type="DEFAULT_VEHTYPE" speed="11.11" pos="438.61" lane="2o_0" slope="0.00"/>
    </timestep>
    <timestep time="62.00">
        <vehicle id="v0" x="945.44" y="498.35" angle="90.00" type="DEFAULT_VEHTYPE" speed="11.11" pos="444.17" lane="2o_0" slope="0.00"/>
    </timestep>
    <timestep time="62.50">
        <vehicle id="v0" x="950.86" y="498.35" angle="90.00" type="DEFAULT_VEHTYPE" speed="11.11" pos="449.72" lane="2o_0" slope="0.00"/>
    </timestep>
    <timestep time="63.00">
        <vehicle id="v0" x="956.29" y="498.35" angle="90.00" type="DEFAULT_VEHTYPE" speed="11.11" pos="455.28" lane="2o_0" slope="0.00"/>
    </timestep>
    <timestep time="63.50">
        <vehicle id="v0" x="961.72" y="498.35" angle="90.00" type="DEFAULT_VEHTYPE" speed="11.11" pos="460.83" lane="2o_0" slope="0.00"/>
    </timestep>
    <timestep time="64.00">
        <vehicle id="v0" x="967.15" y="498.35" angle="90.00" type="DEFAULT_VEHTYPE" speed="11.11" pos="466.39" lane="2o_0" slope="0.00"/>
    </timestep>
    <timestep time="64.50">
        <vehicle id="v0" x="972.58" y="498.35" angle="90.00" type="DEFAULT_VEHTYPE" speed="11.11" pos="471.94" lane="2o_0" slope="0.00"/>
    </timestep>
    <timestep time="65.00">
        <vehicle id="v0" x="978.01" y="498.35" angle="90.00" type="DEFAULT_VEHTYPE" speed="11.11" pos="477.50" lane="2o_0" slope="0.00"/>
    </timestep>
    <timestep time="65.50">
        <vehicle id="v0" x="983.44" y="498.35" angle="90.00" type="DEFAULT_VEHTYPE" speed="11.11" pos="483.05" lane="2o_0" slope="0.00"/>
    </timestep>
    <timestep time="66.00">
        <vehicle id="v0" x="988.87" y="498.35" angle="90.00" type="DEFAULT_VEHTYPE" speed="11.11" pos="488.61" lane="2o_0" slope="0.00"/>
    </timestep>
    <timestep time="66.50">
        <vehicle id="v0" x="994.30" y="498.35" angle="90.00" type="DEFAULT_VEHTYPE" speed="11.11" pos="494.16" lane="2o_0" slope="0.00"/>
    </timestep>
    <timestep time="67.00">
        <vehicle id="v0" x="999.72" y="498.35" angle="90.00" type="DEFAULT_VEHTYPE" speed="11.11" pos="499.72" lane="2o_0" slope="0.00"/>
    </timestep>
    <timestep time="67.50"/>
</fcd-export>
