<?xml version="1.0" encoding="UTF-8"?>

<!-- generated on Thu May 12 15:24:57 2016 by SUMO Version dev-SVN-r20713
<?xml version="1.0" encoding="UTF-8"?>

<configuration xmlns:xsi="http://www.w3.org/2001/XMLSchema-instance" xsi:noNamespaceSchemaLocation="http://sumo.dlr.de/xsd/sumoConfiguration.xsd">

    <input>
        <net-file value="net2.net.xml"/>
        <route-files value="input_routes.rou.xml"/>
    </input>

    <output>
        <fcd-output value="fcd.xml"/>
        <tripinfo-output value="tripinfos.xml"/>
    </output>

    <report>
        <xml-validation value="never"/>
        <no-step-log value="true"/>
    </report>

</configuration>
-->

<fcd-export xmlns:xsi="http://www.w3.org/2001/XMLSchema-instance" xsi:noNamespaceSchemaLocation="http://sumo.dlr.de/xsd/fcd_file.xsd">
    <timestep time="0.00"/>
    <timestep time="1.00"/>
    <timestep time="2.00">
        <vehicle id="overtaking" x="0.00" y="-1.65" angle="90.00" type="DEFAULT_VEHTYPE" speed="0.00" pos="0.00" lane="VODUGES_beg_0" slope="0.00"/>
        <vehicle id="stopped2" x="40.00" y="-1.65" angle="90.00" type="DEFAULT_VEHTYPE" speed="0.00" pos="40.00" lane="VODUGES_beg_0" slope="0.00"/>
    </timestep>
    <timestep time="3.00">
        <vehicle id="oncoming1" x="48.35" y="5.75" angle="180.00" type="DEFAULT_VEHTYPE" speed="0.00" pos="94.25" lane="NC_0" slope="0.00"/>
        <vehicle id="oncoming2" x="48.35" y="80.00" angle="180.00" type="DEFAULT_VEHTYPE" speed="0.00" pos="20.00" lane="NC_0" slope="0.00"/>
        <vehicle id="oncoming3" x="48.35" y="100.00" angle="180.00" type="DEFAULT_VEHTYPE" speed="0.00" pos="0.00" lane="NC_0" slope="0.00"/>
        <vehicle id="overtaking" x="0.84" y="-1.65" angle="90.00" type="DEFAULT_VEHTYPE" speed="1.67" pos="0.84" lane="VODUGES_beg_0" slope="0.00"/>
        <vehicle id="stopped2" x="40.72" y="-1.65" angle="90.00" type="DEFAULT_VEHTYPE" speed="1.44" pos="40.72" lane="VODUGES_beg_0" slope="0.00"/>
    </timestep>
    <timestep time="4.00">
        <vehicle id="oncoming1" x="48.39" y="4.48" angle="179.56" type="DEFAULT_VEHTYPE" speed="2.54" pos="0.27" lane=":C_1_0" slope="0.00"/>
        <vehicle id="oncoming2" x="48.35" y="79.02" angle="180.00" type="DEFAULT_VEHTYPE" speed="1.96" pos="20.98" lane="NC_0" slope="0.00"/>
        <vehicle id="oncoming3" x="48.35" y="99.08" angle="180.00" type="DEFAULT_VEHTYPE" speed="1.83" pos="0.92" lane="NC_0" slope="0.00"/>
        <vehicle id="overtaking" x="3.33" y="-1.65" angle="90.00" type="DEFAULT_VEHTYPE" speed="3.31" pos="3.33" lane="VODUGES_beg_0" slope="0.00"/>
        <vehicle id="stopped2" x="43.33" y="-1.65" angle="90.00" type="DEFAULT_VEHTYPE" speed="3.78" pos="43.33" lane="VODUGES_beg_0" slope="0.00"/>
    </timestep>
    <timestep time="5.00">
        <vehicle id="oncoming1" x="49.33" y="0.99" angle="168.52" type="DEFAULT_VEHTYPE" speed="4.82" pos="3.95" lane=":C_1_0" slope="0.00"/>
        <vehicle id="oncoming2" x="48.35" y="76.11" angle="180.00" type="DEFAULT_VEHTYPE" speed="3.85" pos="23.89" lane="NC_0" slope="0.00"/>
        <vehicle id="oncoming3" x="48.35" y="96.43" angle="180.00" type="DEFAULT_VEHTYPE" speed="3.46" pos="3.57" lane="NC_0" slope="0.00"/>
        <vehicle id="overtaking" x="7.93" y="-1.65" angle="90.00" type="DEFAULT_VEHTYPE" speed="5.90" pos="7.93" lane="VODUGES_beg_0" slope="0.00"/>
        <vehicle id="stopped2" x="44.92" y="-1.65" angle="90.00" type="DEFAULT_VEHTYPE" speed="0.00" pos="44.92" lane="VODUGES_beg_0" slope="0.00"/>
    </timestep>
    <timestep time="6.00">
        <vehicle id="oncoming1" x="54.07" y="-1.55" angle="114.01" type="DEFAULT_VEHTYPE" speed="6.54" pos="9.63" lane=":C_1_0" slope="0.00"/>
        <vehicle id="oncoming2" x="48.35" y="71.26" angle="180.00" type="DEFAULT_VEHTYPE" speed="5.85" pos="28.74" lane="NC_0" slope="0.00"/>
        <vehicle id="oncoming3" x="48.35" y="91.96" angle="180.00" type="DEFAULT_VEHTYPE" speed="5.48" pos="8.04" lane="NC_0" slope="0.00"/>
        <vehicle id="overtaking" x="14.96" y="-1.65" angle="90.00" type="DEFAULT_VEHTYPE" speed="8.16" pos="14.96" lane="VODUGES_beg_0" slope="0.00"/>
        <vehicle id="stopped2" x="44.98" y="-1.65" angle="90.00" type="DEFAULT_VEHTYPE" speed="0.11" pos="44.98" lane="VODUGES_beg_0" slope="0.00"/>
    </timestep>
    <timestep time="7.00">
        <vehicle id="oncoming1" x="61.87" y="-1.65" angle="90.00" type="DEFAULT_VEHTYPE" speed="9.07" pos="7.12" lane="VODUGES_end_0" slope="0.00"/>
        <vehicle id="oncoming2" x="48.35" y="64.69" angle="180.00" type="DEFAULT_VEHTYPE" speed="7.31" pos="35.31" lane="NC_0" slope="0.00"/>
        <vehicle id="oncoming3" x="48.35" y="85.40" angle="180.00" type="DEFAULT_VEHTYPE" speed="7.66" pos="14.60" lane="NC_0" slope="0.00"/>
        <vehicle id="overtaking" x="23.97" y="-1.65" angle="90.00" type="DEFAULT_VEHTYPE" speed="9.87" pos="23.97" lane="VODUGES_beg_0" slope="0.00"/>
        <vehicle id="stopped2" x="44.98" y="-1.65" angle="90.00" type="DEFAULT_VEHTYPE" speed="0.00" pos="44.98" lane="VODUGES_beg_0" slope="0.00"/>
    </timestep>
    <timestep time="8.00">
        <vehicle id="oncoming1" x="72.20" y="-1.65" angle="90.00" type="DEFAULT_VEHTYPE" speed="11.61" pos="17.45" lane="VODUGES_end_0" slope="0.00"/>
        <vehicle id="oncoming2" x="48.35" y="56.41" angle="180.00" type="DEFAULT_VEHTYPE" speed="9.24" pos="43.59" lane="NC_0" slope="0.00"/>
        <vehicle id="oncoming3" x="48.35" y="76.92" angle="180.00" type="DEFAULT_VEHTYPE" speed="9.30" pos="23.08" lane="NC_0" slope="0.00"/>
        <vehicle id="overtaking" x="31.70" y="-1.65" angle="90.00" type="DEFAULT_VEHTYPE" speed="5.60" pos="31.70" lane="VODUGES_beg_0" slope="0.00"/>
        <vehicle id="stopped2" x="44.98" y="-1.65" angle="90.00" type="DEFAULT_VEHTYPE" speed="0.00" pos="44.98" lane="VODUGES_beg_0" slope="0.00"/>
    </timestep>
    <timestep time="9.00">
        <vehicle id="oncoming1" x="84.42" y="-1.65" angle="90.00" type="DEFAULT_VEHTYPE" speed="12.82" pos="29.67" lane="VODUGES_end_0" slope="0.00"/>
        <vehicle id="oncoming2" x="48.35" y="46.45" angle="180.00" type="DEFAULT_VEHTYPE" speed="10.69" pos="53.55" lane="NC_0" slope="0.00"/>
        <vehicle id="oncoming3" x="48.35" y="67.21" angle="180.00" type="DEFAULT_VEHTYPE" speed="10.10" pos="32.79" lane="NC_0" slope="0.00"/>
        <vehicle id="overtaking" x="36.04" y="1.65" angle="90.00" type="DEFAULT_VEHTYPE" speed="3.09" pos="9.21" lane="-VODUGES_beg_0" slope="0.00"/>
        <vehicle id="stopped2" x="44.98" y="-1.65" angle="90.00" type="DEFAULT_VEHTYPE" speed="0.00" pos="44.98" lane="VODUGES_beg_0" slope="0.00"/>
    </timestep>
    <timestep time="10.00">
        <vehicle id="oncoming1" x="97.57" y="-1.65" angle="90.00" type="DEFAULT_VEHTYPE" speed="13.50" pos="42.82" lane="VODUGES_end_0" slope="0.00"/>
        <vehicle id="oncoming2" x="48.35" y="34.96" angle="180.00" type="DEFAULT_VEHTYPE" speed="12.29" pos="65.04" lane="NC_0" slope="0.00"/>
        <vehicle id="oncoming3" x="48.35" y="56.44" angle="180.00" type="DEFAULT_VEHTYPE" speed="11.44" pos="43.56" lane="NC_0" slope="0.00"/>
        <vehicle id="overtaking" x="40.41" y="1.65" angle="90.00" type="DEFAULT_VEHTYPE" speed="5.64" pos="4.84" lane="-VODUGES_beg_0" slope="0.00"/>
        <vehicle id="stopped2" x="44.98" y="-1.65" angle="90.00" type="DEFAULT_VEHTYPE" speed="0.00" pos="44.98" lane="VODUGES_beg_0" slope="0.00"/>
    </timestep>
    <timestep time="11.00">
        <vehicle id="oncoming1" x="110.82" y="-1.65" angle="90.00" type="DEFAULT_VEHTYPE" speed="13.00" pos="56.07" lane="VODUGES_end_0" slope="0.00"/>
        <vehicle id="oncoming2" x="48.35" y="22.72" angle="180.00" type="DEFAULT_VEHTYPE" speed="12.18" pos="77.28" lane="NC_0" slope="0.00"/>
        <vehicle id="oncoming3" x="48.35" y="44.34" angle="180.00" type="DEFAULT_VEHTYPE" speed="12.76" pos="55.66" lane="NC_0" slope="0.00"/>
        <vehicle id="overtaking" x="47.33" y="1.65" angle="90.00" type="DEFAULT_VEHTYPE" speed="8.20" pos="7.42" lane=":C_3_0" slope="0.00"/>
        <vehicle id="stopped2" x="44.98" y="-1.65" angle="90.00" type="DEFAULT_VEHTYPE" speed="0.00" pos="44.98" lane="VODUGES_beg_0" slope="0.00"/>
    </timestep>
    <timestep time="12.00">
        <vehicle id="oncoming1" x="123.64" y="-1.65" angle="90.00" type="DEFAULT_VEHTYPE" speed="12.64" pos="68.89" lane="VODUGES_end_0" slope="0.00"/>
        <vehicle id="oncoming2" x="48.35" y="12.66" angle="180.00" type="DEFAULT_VEHTYPE" speed="7.95" pos="87.34" lane="NC_0" slope="0.00"/>
        <vehicle id="oncoming3" x="48.35" y="31.76" angle="180.00" type="DEFAULT_VEHTYPE" speed="12.39" pos="68.24" lane="NC_0" slope="0.00"/>
        <vehicle id="overtaking" x="56.57" y="-1.65" angle="90.00" type="DEFAULT_VEHTYPE" speed="10.27" pos="1.82" lane="VODUGES_end_0" slope="0.00"/>
        <vehicle id="stopped2" x="44.98" y="-1.65" angle="90.00" type="DEFAULT_VEHTYPE" speed="0.00" pos="44.98" lane="VODUGES_beg_0" slope="0.00"/>
    </timestep>
    <timestep time="13.00">
        <vehicle id="oncoming1" x="136.53" y="-1.65" angle="90.00" type="DEFAULT_VEHTYPE" speed="13.15" pos="81.78" lane="VODUGES_end_0" slope="0.00"/>
        <vehicle id="oncoming2" x="48.35" y="6.96" angle="180.00" type="DEFAULT_VEHTYPE" speed="3.45" pos="93.04" lane="NC_0" slope="0.00"/>
        <vehicle id="oncoming3" x="48.35" y="21.34" angle="180.00" type="DEFAULT_VEHTYPE" speed="8.44" pos="78.66" lane="NC_0" slope="0.00"/>
        <vehicle id="overtaking" x="67.98" y="-1.65" angle="90.00" type="DEFAULT_VEHTYPE" speed="12.56" pos="13.23" lane="VODUGES_end_0" slope="0.00"/>
        <vehicle id="stopped2" x="44.98" y="-1.65" angle="90.00" type="DEFAULT_VEHTYPE" speed="0.00" pos="44.98" lane="VODUGES_beg_0" slope="0.00"/>
    </timestep>
    <timestep time="14.00">
        <vehicle id="oncoming1" x="149.58" y="-1.65" angle="90.00" type="DEFAULT_VEHTYPE" speed="12.96" pos="94.83" lane="VODUGES_end_0" slope="0.00"/>
        <vehicle id="oncoming2" x="48.64" y="2.69" angle="176.61" type="DEFAULT_VEHTYPE" speed="5.15" pos="2.09" lane=":C_1_0" slope="0.00"/>
        <vehicle id="oncoming3" x="48.35" y="15.15" angle="180.00" type="DEFAULT_VEHTYPE" speed="3.94" pos="84.85" lane="NC_0" slope="0.00"/>
        <vehicle id="overtaking" x="80.82" y="-1.65" angle="90.00" type="DEFAULT_VEHTYPE" speed="13.11" pos="26.07" lane="VODUGES_end_0" slope="0.00"/>
        <vehicle id="stopped2" x="44.98" y="-1.65" angle="90.00" type="DEFAULT_VEHTYPE" speed="0.00" pos="44.98" lane="VODUGES_beg_0" slope="0.00"/>
    </timestep>
    <timestep time="15.00">
        <vehicle id="oncoming1" x="162.69" y="-1.65" angle="90.00" type="DEFAULT_VEHTYPE" speed="13.25" pos="107.94" lane="VODUGES_end_0" slope="0.00"/>
        <vehicle id="oncoming2" x="52.78" y="-1.37" angle="127.40" type="DEFAULT_VEHTYPE" speed="7.35" pos="8.33" lane=":C_1_0" slope="0.00"/>
        <vehicle id="oncoming3" x="48.35" y="10.58" angle="180.00" type="DEFAULT_VEHTYPE" speed="5.19" pos="89.42" lane="NC_0" slope="0.00"/>
        <vehicle id="overtaking" x="93.94" y="-1.65" angle="90.00" type="DEFAULT_VEHTYPE" speed="13.14" pos="39.19" lane="VODUGES_end_0" slope="0.00"/>
        <vehicle id="stopped2" x="44.98" y="-1.65" angle="90.00" type="DEFAULT_VEHTYPE" speed="0.00" pos="44.98" lane="VODUGES_beg_0" slope="0.00"/>
    </timestep>
    <timestep time="16.00">
        <vehicle id="oncoming1" x="175.84" y="-1.65" angle="90.00" type="DEFAULT_VEHTYPE" speed="13.06" pos="121.09" lane="VODUGES_end_0" slope="0.00"/>
        <vehicle id="oncoming2" x="61.29" y="-1.65" angle="90.00" type="DEFAULT_VEHTYPE" speed="9.71" pos="6.54" lane="VODUGES_end_0" slope="0.00"/>
        <vehicle id="oncoming3" x="48.35" y="6.24" angle="180.00" type="DEFAULT_VEHTYPE" speed="3.48" pos="93.76" lane="NC_0" slope="0.00"/>
        <vehicle id="overtaking" x="107.36" y="-1.65" angle="90.00" type="DEFAULT_VEHTYPE" speed="13.69" pos="52.61" lane="VODUGES_end_0" slope="0.00"/>
        <vehicle id="stopped2" x="44.98" y="-1.65" angle="90.00" type="DEFAULT_VEHTYPE" speed="0.00" pos="44.98" lane="VODUGES_beg_0" slope="0.00"/>
    </timestep>
    <timestep time="17.00">
        <vehicle id="oncoming1" x="188.96" y="-1.65" angle="90.00" type="DEFAULT_VEHTYPE" speed="13.18" pos="134.21" lane="VODUGES_end_0" slope="0.00"/>
        <vehicle id="oncoming2" x="72.26" y="-1.65" angle="90.00" type="DEFAULT_VEHTYPE" speed="12.22" pos="17.51" lane="VODUGES_end_0" slope="0.00"/>
        <vehicle id="oncoming3" x="48.93" y="1.66" angle="173.32" type="DEFAULT_VEHTYPE" speed="5.85" pos="3.17" lane=":C_1_0" slope="0.00"/>
        <vehicle id="overtaking" x="120.54" y="-1.65" angle="90.00" type="DEFAULT_VEHTYPE" speed="12.68" pos="65.79" lane="VODUGES_end_0" slope="0.00"/>
        <vehicle id="stopped2" x="44.98" y="-1.65" angle="90.00" type="DEFAULT_VEHTYPE" speed="0.00" pos="44.98" lane="VODUGES_beg_0" slope="0.00"/>
    </timestep>
    <timestep time="18.00">
        <vehicle id="oncoming2" x="84.95" y="-1.65" angle="90.00" type="DEFAULT_VEHTYPE" speed="13.15" pos="30.20" lane="VODUGES_end_0" slope="0.00"/>
        <vehicle id="oncoming3" x="54.55" y="-1.62" angle="109.19" type="DEFAULT_VEHTYPE" speed="8.04" pos="10.12" lane=":C_1_0" slope="0.00"/>
        <vehicle id="overtaking" x="133.77" y="-1.65" angle="90.00" type="DEFAULT_VEHTYPE" speed="13.78" pos="79.02" lane="VODUGES_end_0" slope="0.00"/>
        <vehicle id="stopped2" x="44.98" y="-1.65" angle="90.00" type="DEFAULT_VEHTYPE" speed="0.00" pos="44.98" lane="VODUGES_beg_0" slope="0.00"/>
    </timestep>
    <timestep time="19.00">
        <vehicle id="oncoming2" x="98.42" y="-1.65" angle="90.00" type="DEFAULT_VEHTYPE" speed="13.79" pos="43.67" lane="VODUGES_end_0" slope="0.00"/>
        <vehicle id="oncoming3" x="63.77" y="-1.65" angle="90.00" type="DEFAULT_VEHTYPE" speed="10.41" pos="9.02" lane="VODUGES_end_0" slope="0.00"/>
        <vehicle id="overtaking" x="147.58" y="-1.65" angle="90.00" type="DEFAULT_VEHTYPE" speed="13.83" pos="92.83" lane="VODUGES_end_0" slope="0.00"/>
        <vehicle id="stopped2" x="44.98" y="-1.65" angle="90.00" type="DEFAULT_VEHTYPE" speed="0.00" pos="44.98" lane="VODUGES_beg_0" slope="0.00"/>
    </timestep>
    <timestep time="20.00">
        <vehicle id="oncoming2" x="112.07" y="-1.65" angle="90.00" type="DEFAULT_VEHTYPE" speed="13.51" pos="57.32" lane="VODUGES_end_0" slope="0.00"/>
        <vehicle id="oncoming3" x="75.34" y="-1.65" angle="90.00" type="DEFAULT_VEHTYPE" speed="12.73" pos="20.59" lane="VODUGES_end_0" slope="0.00"/>
        <vehicle id="overtaking" x="161.21" y="-1.65" angle="90.00" type="DEFAULT_VEHTYPE" speed="13.43" pos="106.46" lane="VODUGES_end_0" slope="0.00"/>
        <vehicle id="stopped2" x="44.98" y="-1.65" angle="90.00" type="DEFAULT_VEHTYPE" speed="0.00" pos="44.98" lane="VODUGES_beg_0" slope="0.00"/>
    </timestep>
    <timestep time="21.00">
        <vehicle id="oncoming2" x="125.37" y="-1.65" angle="90.00" type="DEFAULT_VEHTYPE" speed="13.09" pos="70.62" lane="VODUGES_end_0" slope="0.00"/>
        <vehicle id="oncoming3" x="88.40" y="-1.65" angle="90.00" type="DEFAULT_VEHTYPE" speed="13.38" pos="33.65" lane="VODUGES_end_0" slope="0.00"/>
        <vehicle id="overtaking" x="174.60" y="-1.65" angle="90.00" type="DEFAULT_VEHTYPE" speed="13.34" pos="119.85" lane="VODUGES_end_0" slope="0.00"/>
        <vehicle id="stopped2" x="44.98" y="-1.65" angle="90.00" type="DEFAULT_VEHTYPE" speed="0.00" pos="44.98" lane="VODUGES_beg_0" slope="0.00"/>
    </timestep>
    <timestep time="22.00">
        <vehicle id="oncoming2" x="138.48" y="-1.65" angle="90.00" type="DEFAULT_VEHTYPE" speed="13.13" pos="83.73" lane="VODUGES_end_0" slope="0.00"/>
        <vehicle id="oncoming3" x="101.76" y="-1.65" angle="90.00" type="DEFAULT_VEHTYPE" speed="13.35" pos="47.01" lane="VODUGES_end_0" slope="0.00"/>
        <vehicle id="overtaking" x="187.67" y="-1.65" angle="90.00" type="DEFAULT_VEHTYPE" speed="12.82" pos="132.92" lane="VODUGES_end_0" slope="0.00"/>
        <vehicle id="stopped2" x="44.98" y="-1.65" angle="90.00" type="DEFAULT_VEHTYPE" speed="0.00" pos="44.98" lane="VODUGES_beg_0" slope="0.00"/>
    </timestep>
    <timestep time="23.00">
        <vehicle id="oncoming2" x="151.97" y="-1.65" angle="90.00" type="DEFAULT_VEHTYPE" speed="13.86" pos="97.22" lane="VODUGES_end_0" slope="0.00"/>
        <vehicle id="oncoming3" x="115.18" y="-1.65" angle="90.00" type="DEFAULT_VEHTYPE" speed="13.50" pos="60.43" lane="VODUGES_end_0" slope="0.00"/>
        <vehicle id="stopped2" x="44.98" y="-1.65" angle="90.00" type="DEFAULT_VEHTYPE" speed="0.00" pos="44.98" lane="VODUGES_beg_0" slope="0.00"/>
    </timestep>
    <timestep time="24.00">
        <vehicle id="oncoming2" x="165.28" y="-1.65" angle="90.00" type="DEFAULT_VEHTYPE" speed="12.75" pos="110.53" lane="VODUGES_end_0" slope="0.00"/>
        <vehicle id="oncoming3" x="128.47" y="-1.65" angle="90.00" type="DEFAULT_VEHTYPE" speed="13.08" pos="73.72" lane="VODUGES_end_0" slope="0.00"/>
        <vehicle id="stopped2" x="44.98" y="-1.65" angle="90.00" type="DEFAULT_VEHTYPE" speed="0.00" pos="44.98" lane="VODUGES_beg_0" slope="0.00"/>
    </timestep>
    <timestep time="25.00">
        <vehicle id="oncoming2" x="178.28" y="-1.65" angle="90.00" type="DEFAULT_VEHTYPE" speed="13.25" pos="123.53" lane="VODUGES_end_0" slope="0.00"/>
        <vehicle id="oncoming3" x="141.68" y="-1.65" angle="90.00" type="DEFAULT_VEHTYPE" speed="13.34" pos="86.93" lane="VODUGES_end_0" slope="0.00"/>
        <vehicle id="stopped2" x="44.98" y="-1.65" angle="90.00" type="DEFAULT_VEHTYPE" speed="0.00" pos="44.98" lane="VODUGES_beg_0" slope="0.00"/>
    </timestep>
    <timestep time="26.00">
        <vehicle id="oncoming2" x="191.55" y="-1.65" angle="90.00" type="DEFAULT_VEHTYPE" speed="13.30" pos="136.80" lane="VODUGES_end_0" slope="0.00"/>
        <vehicle id="oncoming3" x="154.72" y="-1.65" angle="90.00" type="DEFAULT_VEHTYPE" speed="12.75" pos="99.97" lane="VODUGES_end_0" slope="0.00"/>
        <vehicle id="stopped2" x="44.98" y="-1.65" angle="90.00" type="DEFAULT_VEHTYPE" speed="0.00" pos="44.98" lane="VODUGES_beg_0" slope="0.00"/>
    </timestep>
    <timestep time="27.00">
        <vehicle id="oncoming3" x="167.85" y="-1.65" angle="90.00" type="DEFAULT_VEHTYPE" speed="13.50" pos="113.10" lane="VODUGES_end_0" slope="0.00"/>
        <vehicle id="stopped2" x="44.98" y="-1.65" angle="90.00" type="DEFAULT_VEHTYPE" speed="0.00" pos="44.98" lane="VODUGES_beg_0" slope="0.00"/>
    </timestep>
    <timestep time="28.00">
        <vehicle id="oncoming3" x="181.33" y="-1.65" angle="90.00" type="DEFAULT_VEHTYPE" speed="13.44" pos="126.58" lane="VODUGES_end_0" slope="0.00"/>
        <vehicle id="stopped2" x="44.98" y="-1.65" angle="90.00" type="DEFAULT_VEHTYPE" speed="0.00" pos="44.98" lane="VODUGES_beg_0" slope="0.00"/>
    </timestep>
    <timestep time="29.00">
        <vehicle id="oncoming3" x="194.93" y="-1.65" angle="90.00" type="DEFAULT_VEHTYPE" speed="13.76" pos="140.18" lane="VODUGES_end_0" slope="0.00"/>
        <vehicle id="stopped2" x="44.98" y="-1.65" angle="90.00" type="DEFAULT_VEHTYPE" speed="0.00" pos="44.98" lane="VODUGES_beg_0" slope="0.00"/>
    </timestep>
    <timestep time="30.00">
        <vehicle id="stopped2" x="44.98" y="-1.65" angle="90.00" type="DEFAULT_VEHTYPE" speed="0.00" pos="44.98" lane="VODUGES_beg_0" slope="0.00"/>
    </timestep>
    <timestep time="31.00">
        <vehicle id="stopped2" x="44.98" y="-1.65" angle="90.00" type="DEFAULT_VEHTYPE" speed="0.00" pos="44.98" lane="VODUGES_beg_0" slope="0.00"/>
    </timestep>
    <timestep time="32.00">
        <vehicle id="stopped2" x="44.98" y="-1.65" angle="90.00" type="DEFAULT_VEHTYPE" speed="0.00" pos="44.98" lane="VODUGES_beg_0" slope="0.00"/>
    </timestep>
    <timestep time="33.00">
        <vehicle id="stopped2" x="44.98" y="-1.65" angle="90.00" type="DEFAULT_VEHTYPE" speed="0.00" pos="44.98" lane="VODUGES_beg_0" slope="0.00"/>
    </timestep>
    <timestep time="34.00">
        <vehicle id="stopped2" x="44.98" y="-1.65" angle="90.00" type="DEFAULT_VEHTYPE" speed="0.00" pos="44.98" lane="VODUGES_beg_0" slope="0.00"/>
    </timestep>
    <timestep time="35.00">
        <vehicle id="stopped2" x="44.98" y="-1.65" angle="90.00" type="DEFAULT_VEHTYPE" speed="0.00" pos="44.98" lane="VODUGES_beg_0" slope="0.00"/>
    </timestep>
    <timestep time="36.00">
        <vehicle id="stopped2" x="44.98" y="-1.65" angle="90.00" type="DEFAULT_VEHTYPE" speed="0.00" pos="44.98" lane="VODUGES_beg_0" slope="0.00"/>
    </timestep>
    <timestep time="37.00">
        <vehicle id="stopped2" x="44.98" y="-1.65" angle="90.00" type="DEFAULT_VEHTYPE" speed="0.00" pos="44.98" lane="VODUGES_beg_0" slope="0.00"/>
    </timestep>
    <timestep time="38.00">
        <vehicle id="stopped2" x="44.98" y="-1.65" angle="90.00" type="DEFAULT_VEHTYPE" speed="0.00" pos="44.98" lane="VODUGES_beg_0" slope="0.00"/>
    </timestep>
    <timestep time="39.00">
        <vehicle id="stopped2" x="44.98" y="-1.65" angle="90.00" type="DEFAULT_VEHTYPE" speed="0.00" pos="44.98" lane="VODUGES_beg_0" slope="0.00"/>
    </timestep>
    <timestep time="40.00">
        <vehicle id="stopped2" x="44.98" y="-1.65" angle="90.00" type="DEFAULT_VEHTYPE" speed="0.00" pos="44.98" lane="VODUGES_beg_0" slope="0.00"/>
    </timestep>
    <timestep time="41.00">
        <vehicle id="stopped2" x="44.98" y="-1.65" angle="90.00" type="DEFAULT_VEHTYPE" speed="0.00" pos="44.98" lane="VODUGES_beg_0" slope="0.00"/>
    </timestep>
    <timestep time="42.00">
        <vehicle id="stopped2" x="44.98" y="-1.65" angle="90.00" type="DEFAULT_VEHTYPE" speed="0.00" pos="44.98" lane="VODUGES_beg_0" slope="0.00"/>
    </timestep>
    <timestep time="43.00">
        <vehicle id="stopped2" x="44.98" y="-1.65" angle="90.00" type="DEFAULT_VEHTYPE" speed="0.00" pos="44.98" lane="VODUGES_beg_0" slope="0.00"/>
    </timestep>
    <timestep time="44.00">
        <vehicle id="stopped2" x="44.98" y="-1.65" angle="90.00" type="DEFAULT_VEHTYPE" speed="0.00" pos="44.98" lane="VODUGES_beg_0" slope="0.00"/>
    </timestep>
    <timestep time="45.00">
        <vehicle id="stopped2" x="44.98" y="-1.65" angle="90.00" type="DEFAULT_VEHTYPE" speed="0.00" pos="44.98" lane="VODUGES_beg_0" slope="0.00"/>
    </timestep>
    <timestep time="46.00">
        <vehicle id="stopped2" x="44.98" y="-1.65" angle="90.00" type="DEFAULT_VEHTYPE" speed="0.00" pos="44.98" lane="VODUGES_beg_0" slope="0.00"/>
    </timestep>
    <timestep time="47.00">
        <vehicle id="stopped2" x="44.98" y="-1.65" angle="90.00" type="DEFAULT_VEHTYPE" speed="0.00" pos="44.98" lane="VODUGES_beg_0" slope="0.00"/>
    </timestep>
    <timestep time="48.00">
        <vehicle id="stopped2" x="44.98" y="-1.65" angle="90.00" type="DEFAULT_VEHTYPE" speed="0.00" pos="44.98" lane="VODUGES_beg_0" slope="0.00"/>
    </timestep>
    <timestep time="49.00">
        <vehicle id="stopped2" x="44.98" y="-1.65" angle="90.00" type="DEFAULT_VEHTYPE" speed="0.00" pos="44.98" lane="VODUGES_beg_0" slope="0.00"/>
    </timestep>
    <timestep time="50.00">
        <vehicle id="stopped2" x="44.98" y="-1.65" angle="90.00" type="DEFAULT_VEHTYPE" speed="0.00" pos="44.98" lane="VODUGES_beg_0" slope="0.00"/>
    </timestep>
    <timestep time="51.00">
        <vehicle id="stopped2" x="44.98" y="-1.65" angle="90.00" type="DEFAULT_VEHTYPE" speed="0.00" pos="44.98" lane="VODUGES_beg_0" slope="0.00"/>
    </timestep>
    <timestep time="52.00">
        <vehicle id="stopped2" x="44.98" y="-1.65" angle="90.00" type="DEFAULT_VEHTYPE" speed="0.00" pos="44.98" lane="VODUGES_beg_0" slope="0.00"/>
    </timestep>
    <timestep time="53.00">
        <vehicle id="stopped2" x="44.98" y="-1.65" angle="90.00" type="DEFAULT_VEHTYPE" speed="0.00" pos="44.98" lane="VODUGES_beg_0" slope="0.00"/>
    </timestep>
    <timestep time="54.00">
        <vehicle id="stopped2" x="44.98" y="-1.65" angle="90.00" type="DEFAULT_VEHTYPE" speed="0.00" pos="44.98" lane="VODUGES_beg_0" slope="0.00"/>
    </timestep>
    <timestep time="55.00">
        <vehicle id="stopped2" x="44.98" y="-1.65" angle="90.00" type="DEFAULT_VEHTYPE" speed="0.00" pos="44.98" lane="VODUGES_beg_0" slope="0.00"/>
    </timestep>
    <timestep time="56.00">
        <vehicle id="stopped2" x="44.98" y="-1.65" angle="90.00" type="DEFAULT_VEHTYPE" speed="0.00" pos="44.98" lane="VODUGES_beg_0" slope="0.00"/>
    </timestep>
    <timestep time="57.00">
        <vehicle id="stopped2" x="44.98" y="-1.65" angle="90.00" type="DEFAULT_VEHTYPE" speed="0.00" pos="44.98" lane="VODUGES_beg_0" slope="0.00"/>
    </timestep>
    <timestep time="58.00">
        <vehicle id="stopped2" x="44.98" y="-1.65" angle="90.00" type="DEFAULT_VEHTYPE" speed="0.00" pos="44.98" lane="VODUGES_beg_0" slope="0.00"/>
    </timestep>
    <timestep time="59.00">
        <vehicle id="stopped2" x="44.98" y="-1.65" angle="90.00" type="DEFAULT_VEHTYPE" speed="0.00" pos="44.98" lane="VODUGES_beg_0" slope="0.00"/>
    </timestep>
    <timestep time="60.00">
        <vehicle id="stopped2" x="44.98" y="-1.65" angle="90.00" type="DEFAULT_VEHTYPE" speed="0.00" pos="44.98" lane="VODUGES_beg_0" slope="0.00"/>
    </timestep>
    <timestep time="61.00">
        <vehicle id="stopped2" x="44.98" y="-1.65" angle="90.00" type="DEFAULT_VEHTYPE" speed="0.00" pos="44.98" lane="VODUGES_beg_0" slope="0.00"/>
    </timestep>
    <timestep time="62.00">
        <vehicle id="stopped2" x="44.98" y="-1.65" angle="90.00" type="DEFAULT_VEHTYPE" speed="0.00" pos="44.98" lane="VODUGES_beg_0" slope="0.00"/>
    </timestep>
    <timestep time="63.00">
        <vehicle id="stopped2" x="44.98" y="-1.65" angle="90.00" type="DEFAULT_VEHTYPE" speed="0.00" pos="44.98" lane="VODUGES_beg_0" slope="0.00"/>
    </timestep>
    <timestep time="64.00">
        <vehicle id="stopped2" x="44.98" y="-1.65" angle="90.00" type="DEFAULT_VEHTYPE" speed="0.00" pos="44.98" lane="VODUGES_beg_0" slope="0.00"/>
    </timestep>
    <timestep time="65.00">
        <vehicle id="stopped2" x="44.98" y="-1.65" angle="90.00" type="DEFAULT_VEHTYPE" speed="0.00" pos="44.98" lane="VODUGES_beg_0" slope="0.00"/>
    </timestep>
    <timestep time="66.00">
        <vehicle id="stopped2" x="44.98" y="-1.65" angle="90.00" type="DEFAULT_VEHTYPE" speed="0.00" pos="44.98" lane="VODUGES_beg_0" slope="0.00"/>
    </timestep>
    <timestep time="67.00">
        <vehicle id="stopped2" x="44.98" y="-1.65" angle="90.00" type="DEFAULT_VEHTYPE" speed="0.00" pos="44.98" lane="VODUGES_beg_0" slope="0.00"/>
    </timestep>
    <timestep time="68.00">
        <vehicle id="stopped2" x="44.98" y="-1.65" angle="90.00" type="DEFAULT_VEHTYPE" speed="0.00" pos="44.98" lane="VODUGES_beg_0" slope="0.00"/>
    </timestep>
    <timestep time="69.00">
        <vehicle id="stopped2" x="44.98" y="-1.65" angle="90.00" type="DEFAULT_VEHTYPE" speed="0.00" pos="44.98" lane="VODUGES_beg_0" slope="0.00"/>
    </timestep>
    <timestep time="70.00">
        <vehicle id="stopped2" x="44.98" y="-1.65" angle="90.00" type="DEFAULT_VEHTYPE" speed="0.00" pos="44.98" lane="VODUGES_beg_0" slope="0.00"/>
    </timestep>
    <timestep time="71.00">
        <vehicle id="stopped2" x="44.98" y="-1.65" angle="90.00" type="DEFAULT_VEHTYPE" speed="0.00" pos="44.98" lane="VODUGES_beg_0" slope="0.00"/>
    </timestep>
    <timestep time="72.00">
        <vehicle id="stopped2" x="44.98" y="-1.65" angle="90.00" type="DEFAULT_VEHTYPE" speed="0.00" pos="44.98" lane="VODUGES_beg_0" slope="0.00"/>
    </timestep>
    <timestep time="73.00">
        <vehicle id="stopped2" x="44.98" y="-1.65" angle="90.00" type="DEFAULT_VEHTYPE" speed="0.00" pos="44.98" lane="VODUGES_beg_0" slope="0.00"/>
    </timestep>
    <timestep time="74.00">
        <vehicle id="stopped2" x="44.98" y="-1.65" angle="90.00" type="DEFAULT_VEHTYPE" speed="0.00" pos="44.98" lane="VODUGES_beg_0" slope="0.00"/>
    </timestep>
    <timestep time="75.00">
        <vehicle id="stopped2" x="44.98" y="-1.65" angle="90.00" type="DEFAULT_VEHTYPE" speed="0.00" pos="44.98" lane="VODUGES_beg_0" slope="0.00"/>
    </timestep>
    <timestep time="76.00">
        <vehicle id="stopped2" x="44.98" y="-1.65" angle="90.00" type="DEFAULT_VEHTYPE" speed="0.00" pos="44.98" lane="VODUGES_beg_0" slope="0.00"/>
    </timestep>
    <timestep time="77.00">
        <vehicle id="stopped2" x="44.98" y="-1.65" angle="90.00" type="DEFAULT_VEHTYPE" speed="0.00" pos="44.98" lane="VODUGES_beg_0" slope="0.00"/>
    </timestep>
    <timestep time="78.00">
        <vehicle id="stopped2" x="44.98" y="-1.65" angle="90.00" type="DEFAULT_VEHTYPE" speed="0.00" pos="44.98" lane="VODUGES_beg_0" slope="0.00"/>
    </timestep>
    <timestep time="79.00">
        <vehicle id="stopped2" x="44.98" y="-1.65" angle="90.00" type="DEFAULT_VEHTYPE" speed="0.00" pos="44.98" lane="VODUGES_beg_0" slope="0.00"/>
    </timestep>
    <timestep time="80.00">
        <vehicle id="stopped2" x="44.98" y="-1.65" angle="90.00" type="DEFAULT_VEHTYPE" speed="0.00" pos="44.98" lane="VODUGES_beg_0" slope="0.00"/>
    </timestep>
    <timestep time="81.00">
        <vehicle id="stopped2" x="44.98" y="-1.65" angle="90.00" type="DEFAULT_VEHTYPE" speed="0.00" pos="44.98" lane="VODUGES_beg_0" slope="0.00"/>
    </timestep>
    <timestep time="82.00">
        <vehicle id="stopped2" x="44.98" y="-1.65" angle="90.00" type="DEFAULT_VEHTYPE" speed="0.00" pos="44.98" lane="VODUGES_beg_0" slope="0.00"/>
    </timestep>
    <timestep time="83.00">
        <vehicle id="stopped2" x="44.98" y="-1.65" angle="90.00" type="DEFAULT_VEHTYPE" speed="0.00" pos="44.98" lane="VODUGES_beg_0" slope="0.00"/>
    </timestep>
    <timestep time="84.00">
        <vehicle id="stopped2" x="44.98" y="-1.65" angle="90.00" type="DEFAULT_VEHTYPE" speed="0.00" pos="44.98" lane="VODUGES_beg_0" slope="0.00"/>
    </timestep>
    <timestep time="85.00">
        <vehicle id="stopped2" x="44.98" y="-1.65" angle="90.00" type="DEFAULT_VEHTYPE" speed="0.00" pos="44.98" lane="VODUGES_beg_0" slope="0.00"/>
    </timestep>
    <timestep time="86.00">