<?xml version="1.0" encoding="UTF-8"?>

<!-- generated on Thu May 12 15:24:57 2016 by SUMO Version dev-SVN-r20713
<?xml version="1.0" encoding="UTF-8"?>

<configuration xmlns:xsi="http://www.w3.org/2001/XMLSchema-instance" xsi:noNamespaceSchemaLocation="http://sumo.dlr.de/xsd/sumoConfiguration.xsd">

    <input>
        <net-file value="net2.net.xml"/>
        <route-files value="input_routes.rou.xml"/>
    </input>

    <output>
        <fcd-output value="fcd.xml"/>
        <tripinfo-output value="tripinfos.xml"/>
    </output>

    <report>
        <xml-validation value="never"/>
        <no-step-log value="true"/>
    </report>

</configuration>
-->

<tripinfos xmlns:xsi="http://www.w3.org/2001/XMLSchema-instance" xsi:noNamespaceSchemaLocation="http://sumo.dlr.de/xsd/tripinfo_file.xsd">
    <tripinfo id="oncoming1" depart="3.00" departLane="NC_0" departPos="94.25" departSpeed="0.00" departDelay="0.00" arrival="18.00" arrivalLane="VODUGES_end_0" arrivalPos="140.50" arrivalSpeed="13.45" duration="15.00" routeLength="151.82" waitSteps="0" timeLoss="3.08" rerouteNo="0" devices="tripinfo_oncoming1" vType="DEFAULT_VEHTYPE" vaporized=""/>
    <tripinfo id="overtaking" depart="2.00" departLane="VODUGES_beg_0" departPos="0.00" departSpeed="0.00" departDelay="0.00" arrival="23.00" arrivalLane="VODUGES_end_0" arrivalPos="140.50" arrivalSpeed="12.62" duration="21.00" routeLength="195.25" waitSteps="0" timeLoss="6.11" rerouteNo="0" devices="tripinfo_overtaking" vType="DEFAULT_VEHTYPE" vaporized=""/>
    <tripinfo id="oncoming2" depart="3.00" departLane="NC_0" departPos="20.00" departSpeed="0.00" departDelay="0.00" arrival="27.00" arrivalLane="VODUGES_end_0" arrivalPos="140.50" arrivalSpeed="12.63" duration="24.00" routeLength="226.07" waitSteps="0" timeLoss="6.59" rerouteNo="0" devices="tripinfo_oncoming2" vType="DEFAULT_VEHTYPE" vaporized=""/>
    <tripinfo id="oncoming3" depart="3.00" departLane="NC_0" departPos="0.00" departSpeed="0.00" departDelay="0.00" arrival="30.00" arrivalLane="VODUGES_end_0" arrivalPos="140.50" arrivalSpeed="13.03" duration="27.00" routeLength="246.07" waitSteps="0" timeLoss="7.86" rerouteNo="0" devices="tripinfo_oncoming3" vType="DEFAULT_VEHTYPE" vaporized=""/>
    <tripinfo id="stopped2" depart="2.00" departLane="VODUGES_beg_0" departPos="40.00" departSpeed="0.00" departDelay="0.00" arrival="123.00" arrivalLane="VODUGES_end_0" arrivalPos="140.50" arrivalSpeed="12.93" duration="121.00" routeLength="155.25" waitSteps="2" timeLoss="8.19" rerouteNo="0" devices="tripinfo_stopped2" vType="DEFAULT_VEHTYPE" vaporized=""/>
</tripinfos>
