<?xml version="1.0" encoding="UTF-8"?>

<!-- generated on Mon Sep 12 13:12:32 2016 by SUMO Version dev-SVN-r21424
<?xml version="1.0" encoding="UTF-8"?>

<configuration xmlns:xsi="http://www.w3.org/2001/XMLSchema-instance" xsi:noNamespaceSchemaLocation="http://sumo.dlr.de/xsd/sumoConfiguration.xsd">

    <input>
        <net-file value="net2.net.xml"/>
        <route-files value="input_routes.rou.xml"/>
    </input>

    <output>
        <fcd-output value="fcd.xml"/>
        <tripinfo-output value="tripinfos.xml"/>
    </output>

    <processing>
        <step-method.ballistic value="true"/>
    </processing>

    <report>
        <xml-validation value="never"/>
        <no-step-log value="true"/>
    </report>

</configuration>
-->

<fcd-export xmlns:xsi="http://www.w3.org/2001/XMLSchema-instance" xsi:noNamespaceSchemaLocation="http://sumo.dlr.de/xsd/fcd_file.xsd">
    <timestep time="0.00">
        <vehicle id="stopped" x="40.00" y="-1.65" angle="90.00" type="DEFAULT_VEHTYPE" speed="0.00" pos="40.00" lane="VODUGES_beg_0" slope="0.00"/>
    </timestep>
    <timestep time="1.00">
        <vehicle id="stopped" x="40.72" y="-1.65" angle="90.00" type="DEFAULT_VEHTYPE" speed="1.44" pos="40.72" lane="VODUGES_beg_0" slope="0.00"/>
    </timestep>
    <timestep time="2.00">
        <vehicle id="stopped" x="43.00" y="-1.65" angle="90.00" type="DEFAULT_VEHTYPE" speed="3.12" pos="43.00" lane="VODUGES_beg_0" slope="0.00"/>
    </timestep>
    <timestep time="3.00">
        <vehicle id="oncoming1" x="95.25" y="1.65" angle="270.00" type="DEFAULT_VEHTYPE" speed="0.00" pos="100.00" lane="-VODUGES_end_0" slope="0.00"/>
        <vehicle id="oncoming2" x="175.25" y="1.65" angle="270.00" type="DEFAULT_VEHTYPE" speed="0.00" pos="20.00" lane="-VODUGES_end_0" slope="0.00"/>
        <vehicle id="oncoming3" x="195.25" y="1.65" angle="225.00" type="DEFAULT_VEHTYPE" speed="0.00" pos="0.00" lane="-VODUGES_end_0" slope="0.00"/>
        <vehicle id="stopped" x="47.39" y="-1.65" angle="90.00" type="DEFAULT_VEHTYPE" speed="5.66" pos="2.14" lane=":C_4_0" slope="0.00"/>
    </timestep>
    <timestep time="4.00">
        <vehicle id="oncoming1" x="94.27" y="1.65" angle="270.00" type="DEFAULT_VEHTYPE" speed="1.96" pos="100.98" lane="-VODUGES_end_0" slope="0.00"/>
        <vehicle id="oncoming2" x="174.33" y="1.65" angle="270.00" type="DEFAULT_VEHTYPE" speed="1.83" pos="20.92" lane="-VODUGES_end_0" slope="0.00"/>
        <vehicle id="oncoming3" x="193.98" y="1.65" angle="246.31" type="DEFAULT_VEHTYPE" speed="2.54" pos="1.27" lane="-VODUGES_end_0" slope="0.00"/>
        <vehicle id="overtaking" x="0.00" y="-1.65" angle="90.00" type="DEFAULT_VEHTYPE" speed="0.00" pos="0.00" lane="VODUGES_beg_0" slope="0.00"/>
        <vehicle id="stopped" x="53.86" y="-1.65" angle="90.00" type="DEFAULT_VEHTYPE" speed="7.29" pos="8.61" lane=":C_4_0" slope="0.00"/>
        <vehicle id="stopped2" x="40.00" y="-1.65" angle="90.00" type="DEFAULT_VEHTYPE" speed="0.00" pos="40.00" lane="VODUGES_beg_0" slope="0.00"/>
    </timestep>
    <timestep time="5.00">
        <vehicle id="oncoming1" x="91.49" y="1.65" angle="270.00" type="DEFAULT_VEHTYPE" speed="3.59" pos="103.76" lane="-VODUGES_end_0" slope="0.00"/>
        <vehicle id="oncoming2" x="171.20" y="1.65" angle="270.00" type="DEFAULT_VEHTYPE" speed="4.43" pos="24.05" lane="-VODUGES_end_0" slope="0.00"/>
        <vehicle id="oncoming3" x="190.57" y="1.65" angle="269.49" type="DEFAULT_VEHTYPE" speed="4.27" pos="4.68" lane="-VODUGES_end_0" slope="0.00"/>
        <vehicle id="overtaking" x="0.95" y="-1.65" angle="90.00" type="DEFAULT_VEHTYPE" speed="1.89" pos="0.95" lane="VODUGES_beg_0" slope="0.00"/>
        <vehicle id="stopped" x="59.69" y="-1.65" angle="90.00" type="DEFAULT_VEHTYPE" speed="4.37" pos="4.94" lane="VODUGES_end_0" slope="0.00"/>
        <vehicle id="stopped2" x="41.14" y="-1.65" angle="90.00" type="DEFAULT_VEHTYPE" speed="2.28" pos="41.14" lane="VODUGES_beg_0" slope="0.00"/>
    </timestep>
    <timestep time="6.00">
        <vehicle id="oncoming1" x="86.64" y="1.65" angle="270.00" type="DEFAULT_VEHTYPE" speed="6.11" pos="108.61" lane="-VODUGES_end_0" slope="0.00"/>
        <vehicle id="oncoming2" x="166.05" y="1.65" angle="270.00" type="DEFAULT_VEHTYPE" speed="5.89" pos="29.20" lane="-VODUGES_end_0" slope="0.00"/>
        <vehicle id="oncoming3" x="185.21" y="1.65" angle="270.00" type="DEFAULT_VEHTYPE" speed="6.45" pos="10.04" lane="-VODUGES_end_0" slope="0.00"/>
        <vehicle id="overtaking" x="3.96" y="-1.65" angle="90.00" type="DEFAULT_VEHTYPE" speed="4.15" pos="3.96" lane="VODUGES_beg_0" slope="0.00"/>
        <vehicle id="stopped" x="62.40" y="-1.65" angle="90.00" type="DEFAULT_VEHTYPE" speed="1.04" pos="7.65" lane="VODUGES_end_0" slope="0.00"/>
        <vehicle id="stopped2" x="43.50" y="-1.65" angle="90.00" type="DEFAULT_VEHTYPE" speed="2.45" pos="43.50" lane="VODUGES_beg_0" slope="0.00"/>
    </timestep>
    <timestep time="7.00">
        <vehicle id="oncoming1" x="79.56" y="1.65" angle="270.00" type="DEFAULT_VEHTYPE" speed="8.05" pos="115.69" lane="-VODUGES_end_0" slope="0.00"/>
        <vehicle id="oncoming2" x="159.06" y="1.65" angle="270.00" type="DEFAULT_VEHTYPE" speed="8.09" pos="36.19" lane="-VODUGES_end_0" slope="0.00"/>
        <vehicle id="oncoming3" x="178.15" y="1.65" angle="270.00" type="DEFAULT_VEHTYPE" speed="7.68" pos="17.10" lane="-VODUGES_end_0" slope="0.00"/>
        <vehicle id="overtaking" x="9.38" y="-1.65" angle="90.00" type="DEFAULT_VEHTYPE" speed="6.69" pos="9.38" lane="VODUGES_beg_0" slope="0.00"/>
        <vehicle id="stopped" x="62.75" y="-1.65" angle="90.00" type="DEFAULT_VEHTYPE" speed="0.00" pos="8.00" lane="VODUGES_end_0" slope="0.00"/>
        <vehicle id="stopped2" x="44.89" y="-1.65" angle="90.00" type="DEFAULT_VEHTYPE" speed="0.32" pos="44.89" lane="VODUGES_beg_0" slope="0.00"/>
    </timestep>
    <timestep time="8.00">
        <vehicle id="oncoming1" x="70.79" y="1.65" angle="270.00" type="DEFAULT_VEHTYPE" speed="9.49" pos="124.46" lane="-VODUGES_end_0" slope="0.00"/>
        <vehicle id="oncoming2" x="149.93" y="1.65" angle="270.00" type="DEFAULT_VEHTYPE" speed="10.17" pos="45.32" lane="-VODUGES_end_0" slope="0.00"/>
        <vehicle id="oncoming3" x="169.87" y="1.65" angle="270.00" type="DEFAULT_VEHTYPE" speed="8.88" pos="25.38" lane="-VODUGES_end_0" slope="0.00"/>
        <vehicle id="overtaking" x="16.83" y="-1.65" angle="90.00" type="DEFAULT_VEHTYPE" speed="8.22" pos="16.83" lane="VODUGES_beg_0" slope="0.00"/>
        <vehicle id="stopped" x="62.75" y="-1.65" angle="90.00" type="DEFAULT_VEHTYPE" speed="0.00" pos="8.00" lane="VODUGES_end_0" slope="0.00"/>
        <vehicle id="stopped2" x="45.00" y="-1.65" angle="90.00" type="DEFAULT_VEHTYPE" speed="0.00" pos="45.00" lane="VODUGES_beg_0" slope="0.00"/>
    </timestep>
    <timestep time="9.00">
        <vehicle id="oncoming1" x="60.19" y="1.65" angle="270.00" type="DEFAULT_VEHTYPE" speed="11.70" pos="135.06" lane="-VODUGES_end_0" slope="0.00"/>
        <vehicle id="oncoming2" x="138.96" y="1.65" angle="270.00" type="DEFAULT_VEHTYPE" speed="11.78" pos="56.29" lane="-VODUGES_end_0" slope="0.00"/>
        <vehicle id="oncoming3" x="159.94" y="1.65" angle="270.00" type="DEFAULT_VEHTYPE" speed="10.98" pos="35.31" lane="-VODUGES_end_0" slope="0.00"/>
        <vehicle id="overtaking" x="26.00" y="-1.65" angle="90.00" type="DEFAULT_VEHTYPE" speed="10.12" pos="26.00" lane="VODUGES_beg_0" slope="0.00"/>
        <vehicle id="stopped" x="62.75" y="-1.65" angle="90.00" type="DEFAULT_VEHTYPE" speed="0.00" pos="8.00" lane="VODUGES_end_0" slope="0.00"/>
        <vehicle id="stopped2" x="45.00" y="-1.65" angle="90.00" type="DEFAULT_VEHTYPE" speed="0.00" pos="45.00" lane="VODUGES_beg_0" slope="0.00"/>
    </timestep>
    <timestep time="10.00">
        <vehicle id="oncoming1" x="47.84" y="1.65" angle="270.00" type="DEFAULT_VEHTYPE" speed="13.00" pos="6.91" lane=":C_3_0" slope="0.00"/>
        <vehicle id="oncoming2" x="126.34" y="1.65" angle="270.00" type="DEFAULT_VEHTYPE" speed="13.46" pos="68.91" lane="-VODUGES_end_0" slope="0.00"/>
        <vehicle id="oncoming3" x="148.31" y="1.65" angle="270.00" type="DEFAULT_VEHTYPE" speed="12.27" pos="46.94" lane="-VODUGES_end_0" slope="0.00"/>
        <vehicle id="overtaking" x="33.89" y="-1.65" angle="90.00" type="DEFAULT_VEHTYPE" speed="5.65" pos="33.89" lane="VODUGES_beg_0" slope="0.00"/>
        <vehicle id="stopped" x="62.75" y="-1.65" angle="90.00" type="DEFAULT_VEHTYPE" speed="0.00" pos="8.00" lane="VODUGES_end_0" slope="0.00"/>
        <vehicle id="stopped2" x="45.00" y="-1.65" angle="90.00" type="DEFAULT_VEHTYPE" speed="0.00" pos="45.00" lane="VODUGES_beg_0" slope="0.00"/>
    </timestep>
    <timestep time="11.00">
        <vehicle id="oncoming1" x="34.48" y="1.65" angle="270.00" type="DEFAULT_VEHTYPE" speed="13.73" pos="10.77" lane="-VODUGES_beg_0" slope="0.00"/>
        <vehicle id="oncoming2" x="112.83" y="1.65" angle="270.00" type="DEFAULT_VEHTYPE" speed="13.55" pos="82.42" lane="-VODUGES_end_0" slope="0.00"/>
        <vehicle id="oncoming3" x="135.38" y="1.65" angle="270.00" type="DEFAULT_VEHTYPE" speed="13.60" pos="59.87" lane="-VODUGES_end_0" slope="0.00"/>
        <vehicle id="overtaking" x="37.28" y="-1.65" angle="90.00" type="DEFAULT_VEHTYPE" speed="1.15" pos="37.28" lane="VODUGES_beg_0" slope="0.00"/>
        <vehicle id="stopped" x="62.75" y="-1.65" angle="90.00" type="DEFAULT_VEHTYPE" speed="0.00" pos="8.00" lane="VODUGES_end_0" slope="0.00"/>
        <vehicle id="stopped2" x="45.00" y="-1.65" angle="90.00" type="DEFAULT_VEHTYPE" speed="0.00" pos="45.00" lane="VODUGES_beg_0" slope="0.00"/>
    </timestep>
    <timestep time="12.00">
        <vehicle id="oncoming1" x="20.78" y="1.65" angle="270.00" type="DEFAULT_VEHTYPE" speed="13.67" pos="24.47" lane="-VODUGES_beg_0" slope="0.00"/>
        <vehicle id="oncoming2" x="99.27" y="1.65" angle="270.00" type="DEFAULT_VEHTYPE" speed="13.58" pos="95.98" lane="-VODUGES_end_0" slope="0.00"/>
        <vehicle id="oncoming3" x="122.16" y="1.65" angle="270.00" type="DEFAULT_VEHTYPE" speed="12.83" pos="73.09" lane="-VODUGES_end_0" slope="0.00"/>
        <vehicle id="overtaking" x="37.50" y="-1.65" angle="90.00" type="DEFAULT_VEHTYPE" speed="0.00" pos="37.50" lane="VODUGES_beg_0" slope="0.00"/>
        <vehicle id="stopped" x="62.75" y="-1.65" angle="90.00" type="DEFAULT_VEHTYPE" speed="0.00" pos="8.00" lane="VODUGES_end_0" slope="0.00"/>
        <vehicle id="stopped2" x="45.00" y="-1.65" angle="90.00" type="DEFAULT_VEHTYPE" speed="0.00" pos="45.00" lane="VODUGES_beg_0" slope="0.00"/>
    </timestep>
    <timestep time="13.00">
        <vehicle id="oncoming1" x="7.06" y="1.65" angle="270.00" type="DEFAULT_VEHTYPE" speed="13.77" pos="38.19" lane="-VODUGES_beg_0" slope="0.00"/>
        <vehicle id="oncoming2" x="86.00" y="1.65" angle="270.00" type="DEFAULT_VEHTYPE" speed="12.96" pos="109.25" lane="-VODUGES_end_0" slope="0.00"/>
        <vehicle id="oncoming3" x="109.19" y="1.65" angle="270.00" type="DEFAULT_VEHTYPE" speed="13.11" pos="86.06" lane="-VODUGES_end_0" slope="0.00"/>
        <vehicle id="overtaking" x="37.50" y="-1.65" angle="90.00" type="DEFAULT_VEHTYPE" speed="0.00" pos="37.50" lane="VODUGES_beg_0" slope="0.00"/>
        <vehicle id="stopped" x="62.75" y="-1.65" angle="90.00" type="DEFAULT_VEHTYPE" speed="0.00" pos="8.00" lane="VODUGES_end_0" slope="0.00"/>
        <vehicle id="stopped2" x="45.00" y="-1.65" angle="90.00" type="DEFAULT_VEHTYPE" speed="0.00" pos="45.00" lane="VODUGES_beg_0" slope="0.00"/>
    </timestep>
    <timestep time="14.00">
        <vehicle id="oncoming2" x="73.20" y="1.65" angle="270.00" type="DEFAULT_VEHTYPE" speed="12.64" pos="122.05" lane="-VODUGES_end_0" slope="0.00"/>
        <vehicle id="oncoming3" x="95.97" y="1.65" angle="270.00" type="DEFAULT_VEHTYPE" speed="13.32" pos="99.28" lane="-VODUGES_end_0" slope="0.00"/>
        <vehicle id="overtaking" x="37.50" y="-1.65" angle="90.00" type="DEFAULT_VEHTYPE" speed="0.00" pos="37.50" lane="VODUGES_beg_0" slope="0.00"/>
        <vehicle id="stopped" x="62.75" y="-1.65" angle="90.00" type="DEFAULT_VEHTYPE" speed="0.00" pos="8.00" lane="VODUGES_end_0" slope="0.00"/>
        <vehicle id="stopped2" x="45.00" y="-1.65" angle="90.00" type="DEFAULT_VEHTYPE" speed="0.00" pos="45.00" lane="VODUGES_beg_0" slope="0.00"/>
    </timestep>
    <timestep time="15.00">
        <vehicle id="oncoming2" x="60.31" y="1.65" angle="270.00" type="DEFAULT_VEHTYPE" speed="13.14" pos="134.94" lane="-VODUGES_end_0" slope="0.00"/>
        <vehicle id="oncoming3" x="82.76" y="1.65" angle="270.00" type="DEFAULT_VEHTYPE" speed="13.10" pos="112.49" lane="-VODUGES_end_0" slope="0.00"/>
        <vehicle id="overtaking" x="37.50" y="-1.65" angle="90.00" type="DEFAULT_VEHTYPE" speed="0.00" pos="37.50" lane="VODUGES_beg_0" slope="0.00"/>
        <vehicle id="stopped" x="62.75" y="-1.65" angle="90.00" type="DEFAULT_VEHTYPE" speed="0.00" pos="8.00" lane="VODUGES_end_0" slope="0.00"/>
        <vehicle id="stopped2" x="45.00" y="-1.65" angle="90.00" type="DEFAULT_VEHTYPE" speed="0.00" pos="45.00" lane="VODUGES_beg_0" slope="0.00"/>
    </timestep>
    <timestep time="16.00">
        <vehicle id="oncoming2" x="46.92" y="1.65" angle="270.00" type="DEFAULT_VEHTYPE" speed="13.65" pos="7.83" lane=":C_3_0" slope="0.00"/>
        <vehicle id="oncoming3" x="69.80" y="1.65" angle="270.00" type="DEFAULT_VEHTYPE" speed="12.83" pos="125.45" lane="-VODUGES_end_0" slope="0.00"/>
        <vehicle id="overtaking" x="37.50" y="-1.65" angle="90.00" type="DEFAULT_VEHTYPE" speed="0.00" pos="37.50" lane="VODUGES_beg_0" slope="0.00"/>
        <vehicle id="stopped" x="62.75" y="-1.65" angle="90.00" type="DEFAULT_VEHTYPE" speed="0.00" pos="8.00" lane="VODUGES_end_0" slope="0.00"/>
        <vehicle id="stopped2" x="45.00" y="-1.65" angle="90.00" type="DEFAULT_VEHTYPE" speed="0.00" pos="45.00" lane="VODUGES_beg_0" slope="0.00"/>
    </timestep>
    <timestep time="17.00">
        <vehicle id="oncoming2" x="33.25" y="1.65" angle="270.00" type="DEFAULT_VEHTYPE" speed="13.69" pos="12.00" lane="-VODUGES_beg_0" slope="0.00"/>
        <vehicle id="oncoming3" x="56.62" y="1.65" angle="270.00" type="DEFAULT_VEHTYPE" speed="13.53" pos="138.63" lane="-VODUGES_end_0" slope="0.00"/>
        <vehicle id="overtaking" x="37.50" y="-1.65" angle="90.00" type="DEFAULT_VEHTYPE" speed="0.00" pos="37.50" lane="VODUGES_beg_0" slope="0.00"/>
        <vehicle id="stopped" x="62.75" y="-1.65" angle="90.00" type="DEFAULT_VEHTYPE" speed="0.00" pos="8.00" lane="VODUGES_end_0" slope="0.00"/>
        <vehicle id="stopped2" x="45.00" y="-1.65" angle="90.00" type="DEFAULT_VEHTYPE" speed="0.00" pos="45.00" lane="VODUGES_beg_0" slope="0.00"/>
    </timestep>
    <timestep time="18.00">
        <vehicle id="oncoming2" x="19.81" y="1.65" angle="270.00" type="DEFAULT_VEHTYPE" speed="13.18" pos="25.44" lane="-VODUGES_beg_0" slope="0.00"/>
        <vehicle id="oncoming3" x="42.95" y="1.65" angle="270.00" type="DEFAULT_VEHTYPE" speed="13.80" pos="2.30" lane="-VODUGES_beg_0" slope="0.00"/>
        <vehicle id="overtaking" x="37.50" y="-1.65" angle="90.00" type="DEFAULT_VEHTYPE" speed="0.00" pos="37.50" lane="VODUGES_beg_0" slope="0.00"/>
        <vehicle id="stopped" x="62.75" y="-1.65" angle="90.00" type="DEFAULT_VEHTYPE" speed="0.00" pos="8.00" lane="VODUGES_end_0" slope="0.00"/>
        <vehicle id="stopped2" x="45.00" y="-1.65" angle="90.00" type="DEFAULT_VEHTYPE" speed="0.00" pos="45.00" lane="VODUGES_beg_0" slope="0.00"/>
    </timestep>
    <timestep time="19.00">
        <vehicle id="oncoming2" x="6.39" y="1.65" angle="270.00" type="DEFAULT_VEHTYPE" speed="13.66" pos="38.86" lane="-VODUGES_beg_0" slope="0.00"/>
        <vehicle id="oncoming3" x="29.80" y="1.65" angle="270.00" type="DEFAULT_VEHTYPE" speed="12.50" pos="15.45" lane="-VODUGES_beg_0" slope="0.00"/>
        <vehicle id="overtaking" x="37.50" y="-1.65" angle="90.00" type="DEFAULT_VEHTYPE" speed="0.00" pos="37.50" lane="VODUGES_beg_0" slope="0.00"/>
        <vehicle id="stopped" x="62.75" y="-1.65" angle="90.00" type="DEFAULT_VEHTYPE" speed="0.00" pos="8.00" lane="VODUGES_end_0" slope="0.00"/>
        <vehicle id="stopped2" x="45.00" y="-1.65" angle="90.00" type="DEFAULT_VEHTYPE" speed="0.00" pos="45.00" lane="VODUGES_beg_0" slope="0.00"/>
    </timestep>
    <timestep time="20.00">
        <vehicle id="oncoming3" x="16.66" y="1.65" angle="270.00" type="DEFAULT_VEHTYPE" speed="13.78" pos="28.59" lane="-VODUGES_beg_0" slope="0.00"/>
        <vehicle id="overtaking" x="37.50" y="1.65" angle="90.00" type="DEFAULT_VEHTYPE" speed="0.00" pos="7.75" lane="-VODUGES_beg_0" slope="0.00"/>
        <vehicle id="stopped" x="62.75" y="-1.65" angle="90.00" type="DEFAULT_VEHTYPE" speed="0.00" pos="8.00" lane="VODUGES_end_0" slope="0.00"/>
        <vehicle id="stopped2" x="45.00" y="-1.65" angle="90.00" type="DEFAULT_VEHTYPE" speed="0.00" pos="45.00" lane="VODUGES_beg_0" slope="0.00"/>
    </timestep>
    <timestep time="21.00">
        <vehicle id="oncoming3" x="2.96" y="1.65" angle="270.00" type="DEFAULT_VEHTYPE" speed="13.62" pos="42.29" lane="-VODUGES_beg_0" slope="0.00"/>
        <vehicle id="overtaking" x="38.68" y="1.65" angle="90.00" type="DEFAULT_VEHTYPE" speed="2.37" pos="6.57" lane="-VODUGES_beg_0" slope="0.00"/>
        <vehicle id="stopped" x="62.75" y="-1.65" angle="90.00" type="DEFAULT_VEHTYPE" speed="0.00" pos="8.00" lane="VODUGES_end_0" slope="0.00"/>
        <vehicle id="stopped2" x="45.00" y="-1.65" angle="90.00" type="DEFAULT_VEHTYPE" speed="0.00" pos="45.00" lane="VODUGES_beg_0" slope="0.00"/>
    </timestep>
    <timestep time="22.00">
        <vehicle id="overtaking" x="41.88" y="1.65" angle="90.00" type="DEFAULT_VEHTYPE" speed="4.03" pos="3.37" lane="-VODUGES_beg_0" slope="0.00"/>
        <vehicle id="stopped" x="62.75" y="-1.65" angle="90.00" type="DEFAULT_VEHTYPE" speed="0.00" pos="8.00" lane="VODUGES_end_0" slope="0.00"/>
        <vehicle id="stopped2" x="45.00" y="-1.65" angle="90.00" type="DEFAULT_VEHTYPE" speed="0.00" pos="45.00" lane="VODUGES_beg_0" slope="0.00"/>
    </timestep>
    <timestep time="23.00">
        <vehicle id="overtaking" x="47.01" y="1.65" angle="90.00" type="DEFAULT_VEHTYPE" speed="6.25" pos="7.74" lane=":C_3_0" slope="0.00"/>
        <vehicle id="stopped" x="62.75" y="-1.65" angle="90.00" type="DEFAULT_VEHTYPE" speed="0.00" pos="8.00" lane="VODUGES_end_0" slope="0.00"/>
        <vehicle id="stopped2" x="45.00" y="-1.65" angle="90.00" type="DEFAULT_VEHTYPE" speed="0.00" pos="45.00" lane="VODUGES_beg_0" slope="0.00"/>
    </timestep>
    <timestep time="24.00">
        <vehicle id="overtaking" x="54.12" y="1.65" angle="90.00" type="DEFAULT_VEHTYPE" speed="7.97" pos="0.63" lane=":C_3_0" slope="0.00"/>
        <vehicle id="stopped" x="62.75" y="-1.65" angle="90.00" type="DEFAULT_VEHTYPE" speed="0.00" pos="8.00" lane="VODUGES_end_0" slope="0.00"/>
        <vehicle id="stopped2" x="45.00" y="-1.65" angle="90.00" type="DEFAULT_VEHTYPE" speed="0.00" pos="45.00" lane="VODUGES_beg_0" slope="0.00"/>
    </timestep>
    <timestep time="25.00">
        <vehicle id="overtaking" x="62.99" y="1.65" angle="90.00" type="DEFAULT_VEHTYPE" speed="9.77" pos="132.26" lane="-VODUGES_end_0" slope="0.00"/>
        <vehicle id="stopped" x="62.75" y="-1.65" angle="90.00" type="DEFAULT_VEHTYPE" speed="0.00" pos="8.00" lane="VODUGES_end_0" slope="0.00"/>
        <vehicle id="stopped2" x="45.00" y="-1.65" angle="90.00" type="DEFAULT_VEHTYPE" speed="0.00" pos="45.00" lane="VODUGES_beg_0" slope="0.00"/>
    </timestep>
    <timestep time="26.00">
        <vehicle id="overtaking" x="73.73" y="-1.65" angle="90.00" type="DEFAULT_VEHTYPE" speed="11.70" pos="18.98" lane="VODUGES_end_0" slope="0.00"/>
        <vehicle id="stopped" x="62.75" y="-1.65" angle="90.00" type="DEFAULT_VEHTYPE" speed="0.00" pos="8.00" lane="VODUGES_end_0" slope="0.00"/>
        <vehicle id="stopped2" x="45.00" y="-1.65" angle="90.00" type="DEFAULT_VEHTYPE" speed="0.00" pos="45.00" lane="VODUGES_beg_0" slope="0.00"/>
    </timestep>
    <timestep time="27.00">
        <vehicle id="overtaking" x="86.14" y="-1.65" angle="90.00" type="DEFAULT_VEHTYPE" speed="13.13" pos="31.39" lane="VODUGES_end_0" slope="0.00"/>
        <vehicle id="stopped" x="62.75" y="-1.65" angle="90.00" type="DEFAULT_VEHTYPE" speed="0.00" pos="8.00" lane="VODUGES_end_0" slope="0.00"/>
        <vehicle id="stopped2" x="45.00" y="-1.65" angle="90.00" type="DEFAULT_VEHTYPE" speed="0.00" pos="45.00" lane="VODUGES_beg_0" slope="0.00"/>
    </timestep>
    <timestep time="28.00">
        <vehicle id="overtaking" x="99.41" y="-1.65" angle="90.00" type="DEFAULT_VEHTYPE" speed="13.42" pos="44.66" lane="VODUGES_end_0" slope="0.00"/>
        <vehicle id="stopped" x="62.75" y="-1.65" angle="90.00" type="DEFAULT_VEHTYPE" speed="0.00" pos="8.00" lane="VODUGES_end_0" slope="0.00"/>
        <vehicle id="stopped2" x="45.00" y="-1.65" angle="90.00" type="DEFAULT_VEHTYPE" speed="0.00" pos="45.00" lane="VODUGES_beg_0" slope="0.00"/>
    </timestep>
    <timestep time="29.00">
        <vehicle id="overtaking" x="113.05" y="-1.65" angle="90.00" type="DEFAULT_VEHTYPE" speed="13.86" pos="58.30" lane="VODUGES_end_0" slope="0.00"/>
        <vehicle id="stopped" x="62.75" y="-1.65" angle="90.00" type="DEFAULT_VEHTYPE" speed="0.00" pos="8.00" lane="VODUGES_end_0" slope="0.00"/>
        <vehicle id="stopped2" x="45.00" y="-1.65" angle="90.00" type="DEFAULT_VEHTYPE" speed="0.00" pos="45.00" lane="VODUGES_beg_0" slope="0.00"/>
    </timestep>
    <timestep time="30.00">
        <vehicle id="overtaking" x="126.86" y="-1.65" angle="90.00" type="DEFAULT_VEHTYPE" speed="13.75" pos="72.11" lane="VODUGES_end_0" slope="0.00"/>
        <vehicle id="stopped" x="62.75" y="-1.65" angle="90.00" type="DEFAULT_VEHTYPE" speed="0.00" pos="8.00" lane="VODUGES_end_0" slope="0.00"/>
        <vehicle id="stopped2" x="45.00" y="-1.65" angle="90.00" type="DEFAULT_VEHTYPE" speed="0.00" pos="45.00" lane="VODUGES_beg_0" slope="0.00"/>
    </timestep>
    <timestep time="31.00">
        <vehicle id="overtaking" x="140.27" y="-1.65" angle="90.00" type="DEFAULT_VEHTYPE" speed="13.08" pos="85.52" lane="VODUGES_end_0" slope="0.00"/>
        <vehicle id="stopped" x="62.75" y="-1.65" angle="90.00" type="DEFAULT_VEHTYPE" speed="0.00" pos="8.00" lane="VODUGES_end_0" slope="0.00"/>
        <vehicle id="stopped2" x="45.00" y="-1.65" angle="90.00" type="DEFAULT_VEHTYPE" speed="0.00" pos="45.00" lane="VODUGES_beg_0" slope="0.00"/>
    </timestep>
    <timestep time="32.00">
        <vehicle id="overtaking" x="153.44" y="-1.65" angle="90.00" type="DEFAULT_VEHTYPE" speed="13.25" pos="98.69" lane="VODUGES_end_0" slope="0.00"/>
        <vehicle id="stopped" x="62.75" y="-1.65" angle="90.00" type="DEFAULT_VEHTYPE" speed="0.00" pos="8.00" lane="VODUGES_end_0" slope="0.00"/>
        <vehicle id="stopped2" x="45.00" y="-1.65" angle="90.00" type="DEFAULT_VEHTYPE" speed="0.00" pos="45.00" lane="VODUGES_beg_0" slope="0.00"/>
    </timestep>
    <timestep time="33.00">
        <vehicle id="overtaking" x="166.54" y="-1.65" angle="90.00" type="DEFAULT_VEHTYPE" speed="12.97" pos="111.79" lane="VODUGES_end_0" slope="0.00"/>
        <vehicle id="stopped" x="62.75" y="-1.65" angle="90.00" type="DEFAULT_VEHTYPE" speed="0.00" pos="8.00" lane="VODUGES_end_0" slope="0.00"/>
        <vehicle id="stopped2" x="45.00" y="-1.65" angle="90.00" type="DEFAULT_VEHTYPE" speed="0.00" pos="45.00" lane="VODUGES_beg_0" slope="0.00"/>
    </timestep>
    <timestep time="34.00">
        <vehicle id="overtaking" x="179.40" y="-1.65" angle="90.00" type="DEFAULT_VEHTYPE" speed="12.75" pos="124.65" lane="VODUGES_end_0" slope="0.00"/>
        <vehicle id="stopped" x="62.75" y="-1.65" angle="90.00" type="DEFAULT_VEHTYPE" speed="0.00" pos="8.00" lane="VODUGES_end_0" slope="0.00"/>
        <vehicle id="stopped2" x="45.00" y="-1.65" angle="90.00" type="DEFAULT_VEHTYPE" speed="0.00" pos="45.00" lane="VODUGES_beg_0" slope="0.00"/>
    </timestep>
    <timestep time="35.00">
        <vehicle id="overtaking" x="192.09" y="-1.65" angle="90.00" type="DEFAULT_VEHTYPE" speed="12.63" pos="137.34" lane="VODUGES_end_0" slope="0.00"/>
        <vehicle id="stopped" x="62.75" y="-1.65" angle="90.00" type="DEFAULT_VEHTYPE" speed="0.00" pos="8.00" lane="VODUGES_end_0" slope="0.00"/>
        <vehicle id="stopped2" x="45.00" y="-1.65" angle="90.00" type="DEFAULT_VEHTYPE" speed="0.00" pos="45.00" lane="VODUGES_beg_0" slope="0.00"/>
    </timestep>
    <timestep time="36.00">
        <vehicle id="stopped" x="62.75" y="-1.65" angle="90.00" type="DEFAULT_VEHTYPE" speed="0.00" pos="8.00" lane="VODUGES_end_0" slope="0.00"/>
        <vehicle id="stopped2" x="45.00" y="-1.65" angle="90.00" type="DEFAULT_VEHTYPE" speed="0.00" pos="45.00" lane="VODUGES_beg_0" slope="0.00"/>
    </timestep>
    <timestep time="37.00">
        <vehicle id="stopped" x="62.75" y="-1.65" angle="90.00" type="DEFAULT_VEHTYPE" speed="0.00" pos="8.00" lane="VODUGES_end_0" slope="0.00"/>
        <vehicle id="stopped2" x="45.00" y="-1.65" angle="90.00" type="DEFAULT_VEHTYPE" speed="0.00" pos="45.00" lane="VODUGES_beg_0" slope="0.00"/>
    </timestep>
    <timestep time="38.00">
        <vehicle id="stopped" x="62.75" y="-1.65" angle="90.00" type="DEFAULT_VEHTYPE" speed="0.00" pos="8.00" lane="VODUGES_end_0" slope="0.00"/>
        <vehicle id="stopped2" x="45.00" y="-1.65" angle="90.00" type="DEFAULT_VEHTYPE" speed="0.00" pos="45.00" lane="VODUGES_beg_0" slope="0.00"/>
    </timestep>
    <timestep time="39.00">
        <vehicle id="stopped" x="62.75" y="-1.65" angle="90.00" type="DEFAULT_VEHTYPE" speed="0.00" pos="8.00" lane="VODUGES_end_0" slope="0.00"/>
        <vehicle id="stopped2" x="45.00" y="-1.65" angle="90.00" type="DEFAULT_VEHTYPE" speed="0.00" pos="45.00" lane="VODUGES_beg_0" slope="0.00"/>
    </timestep>
    <timestep time="40.00">
        <vehicle id="stopped" x="62.75" y="-1.65" angle="90.00" type="DEFAULT_VEHTYPE" speed="0.00" pos="8.00" lane="VODUGES_end_0" slope="0.00"/>
        <vehicle id="stopped2" x="45.00" y="-1.65" angle="90.00" type="DEFAULT_VEHTYPE" speed="0.00" pos="45.00" lane="VODUGES_beg_0" slope="0.00"/>
    </timestep>
    <timestep time="41.00">
        <vehicle id="stopped" x="62.75" y="-1.65" angle="90.00" type="DEFAULT_VEHTYPE" speed="0.00" pos="8.00" lane="VODUGES_end_0" slope="0.00"/>
        <vehicle id="stopped2" x="45.00" y="-1.65" angle="90.00" type="DEFAULT_VEHTYPE" speed="0.00" pos="45.00" lane="VODUGES_beg_0" slope="0.00"/>
    </timestep>
    <timestep time="42.00">
        <vehicle id="stopped" x="62.75" y="-1.65" angle="90.00" type="DEFAULT_VEHTYPE" speed="0.00" pos="8.00" lane="VODUGES_end_0" slope="0.00"/>
        <vehicle id="stopped2" x="45.00" y="-1.65" angle="90.00" type="DEFAULT_VEHTYPE" speed="0.00" pos="45.00" lane="VODUGES_beg_0" slope="0.00"/>
    </timestep>
    <timestep time="43.00">
        <vehicle id="stopped" x="62.75" y="-1.65" angle="90.00" type="DEFAULT_VEHTYPE" speed="0.00" pos="8.00" lane="VODUGES_end_0" slope="0.00"/>
        <vehicle id="stopped2" x="45.00" y="-1.65" angle="90.00" type="DEFAULT_VEHTYPE" speed="0.00" pos="45.00" lane="VODUGES_beg_0" slope="0.00"/>
    </timestep>
    <timestep time="44.00">
        <vehicle id="stopped" x="62.75" y="-1.65" angle="90.00" type="DEFAULT_VEHTYPE" speed="0.00" pos="8.00" lane="VODUGES_end_0" slope="0.00"/>
        <vehicle id="stopped2" x="45.00" y="-1.65" angle="90.00" type="DEFAULT_VEHTYPE" speed="0.00" pos="45.00" lane="VODUGES_beg_0" slope="0.00"/>
    </timestep>
    <timestep time="45.00">
        <vehicle id="stopped" x="62.75" y="-1.65" angle="90.00" type="DEFAULT_VEHTYPE" speed="0.00" pos="8.00" lane="VODUGES_end_0" slope="0.00"/>
        <vehicle id="stopped2" x="45.00" y="-1.65" angle="90.00" type="DEFAULT_VEHTYPE" speed="0.00" pos="45.00" lane="VODUGES_beg_0" slope="0.00"/>
    </timestep>
    <timestep time="46.00">
        <vehicle id="stopped" x="62.75" y="-1.65" angle="90.00" type="DEFAULT_VEHTYPE" speed="0.00" pos="8.00" lane="VODUGES_end_0" slope="0.00"/>
        <vehicle id="stopped2" x="45.00" y="-1.65" angle="90.00" type="DEFAULT_VEHTYPE" speed="0.00" pos="45.00" lane="VODUGES_beg_0" slope="0.00"/>
    </timestep>
    <timestep time="47.00">
        <vehicle id="stopped" x="62.75" y="-1.65" angle="90.00" type="DEFAULT_VEHTYPE" speed="0.00" pos="8.00" lane="VODUGES_end_0" slope="0.00"/>
        <vehicle id="stopped2" x="45.00" y="-1.65" angle="90.00" type="DEFAULT_VEHTYPE" speed="0.00" pos="45.00" lane="VODUGES_beg_0" slope="0.00"/>
    </timestep>
    <timestep time="48.00">
        <vehicle id="stopped" x="62.75" y="-1.65" angle="90.00" type="DEFAULT_VEHTYPE" speed="0.00" pos="8.00" lane="VODUGES_end_0" slope="0.00"/>
        <vehicle id="stopped2" x="45.00" y="-1.65" angle="90.00" type="DEFAULT_VEHTYPE" speed="0.00" pos="45.00" lane="VODUGES_beg_0" slope="0.00"/>
    </timestep>
    <timestep time="49.00">
        <vehicle id="stopped" x="62.75" y="-1.65" angle="90.00" type="DEFAULT_VEHTYPE" speed="0.00" pos="8.00" lane="VODUGES_end_0" slope="0.00"/>
        <vehicle id="stopped2" x="45.00" y="-1.65" angle="90.00" type="DEFAULT_VEHTYPE" speed="0.00" pos="45.00" lane="VODUGES_beg_0" slope="0.00"/>
    </timestep>
    <timestep time="50.00">
        <vehicle id="stopped" x="62.75" y="-1.65" angle="90.00" type="DEFAULT_VEHTYPE" speed="0.00" pos="8.00" lane="VODUGES_end_0" slope="0.00"/>
        <vehicle id="stopped2" x="45.00" y="-1.65" angle="90.00" type="DEFAULT_VEHTYPE" speed="0.00" pos="45.00" lane="VODUGES_beg_0" slope="0.00"/>
    </timestep>
    <timestep time="51.00">
        <vehicle id="stopped" x="62.75" y="-1.65" angle="90.00" type="DEFAULT_VEHTYPE" speed="0.00" pos="8.00" lane="VODUGES_end_0" slope="0.00"/>
        <vehicle id="stopped2" x="45.00" y="-1.65" angle="90.00" type="DEFAULT_VEHTYPE" speed="0.00" pos="45.00" lane="VODUGES_beg_0" slope="0.00"/>
    </timestep>
    <timestep time="52.00">