<?xml version="1.0" encoding="UTF-8"?>

<!-- generated on Fri Sep  9 14:56:15 2016 by SUMO Version dev-SVN-r21424
<?xml version="1.0" encoding="UTF-8"?>

<configuration xmlns:xsi="http://www.w3.org/2001/XMLSchema-instance" xsi:noNamespaceSchemaLocation="http://sumo.dlr.de/xsd/sumoConfiguration.xsd">

    <input>
        <net-file value="net.net.xml"/>
        <route-files value="input_routes.rou.xml"/>
    </input>

    <output>
        <tripinfo-output value="tripinfos.xml"/>
    </output>

    <processing>
        <step-method.ballistic value="true"/>
    </processing>

    <report>
        <xml-validation value="never"/>
        <duration-log.disable value="true"/>
        <no-step-log value="true"/>
    </report>

</configuration>
-->

<tripinfos xmlns:xsi="http://www.w3.org/2001/XMLSchema-instance" xsi:noNamespaceSchemaLocation="http://sumo.dlr.de/xsd/tripinfo_file.xsd">
    <tripinfo id="SN.0" depart="1.00" departLane="SC_0" departPos="5.10" departSpeed="13.89" departDelay="0.00" arrival="16.00" arrivalLane="CN_0" arrivalPos="95.25" arrivalSpeed="13.89" duration="15.00" routeLength="194.90" waitSteps="0" timeLoss="0.00" rerouteNo="0" devices="tripinfo_SN.0 routing_SN.0" vType="DEFAULT_VEHTYPE" vaporized=""/>
    <tripinfo id="SN.1" depart="2.00" departLane="SC_0" departPos="5.10" departSpeed="11.95" departDelay="0.00" arrival="17.00" arrivalLane="CN_0" arrivalPos="95.25" arrivalSpeed="13.89" duration="15.00" routeLength="194.90" waitSteps="0" timeLoss="0.46" rerouteNo="0" devices="tripinfo_SN.1 routing_SN.1" vType="DEFAULT_VEHTYPE" vaporized=""/>
    <tripinfo id="SN.2" depart="5.00" departLane="SC_0" departPos="5.10" departSpeed="13.89" departDelay="0.00" arrival="20.00" arrivalLane="CN_0" arrivalPos="95.25" arrivalSpeed="13.89" duration="15.00" routeLength="194.90" waitSteps="0" timeLoss="0.00" rerouteNo="0" devices="tripinfo_SN.2 routing_SN.2" vType="DEFAULT_VEHTYPE" vaporized=""/>
    <tripinfo id="SN.3" depart="10.00" departLane="SC_0" departPos="5.10" departSpeed="13.89" departDelay="0.00" arrival="25.00" arrivalLane="CN_0" arrivalPos="95.25" arrivalSpeed="13.89" duration="15.00" routeLength="194.90" waitSteps="0" timeLoss="0.00" rerouteNo="0" devices="tripinfo_SN.3 routing_SN.3" vType="DEFAULT_VEHTYPE" vaporized=""/>
    <tripinfo id="EN.0" depart="3.00" departLane="EC_0" departPos="5.10" departSpeed="13.89" departDelay="0.00" arrival="28.00" arrivalLane="CN_0" arrivalPos="95.25" arrivalSpeed="13.89" duration="25.00" routeLength="190.40" waitSteps="7" timeLoss="11.20" rerouteNo="0" devices="tripinfo_EN.0 routing_EN.0" vType="DEFAULT_VEHTYPE" vaporized=""/>
    <tripinfo id="SN.4" depart="16.00" departLane="SC_0" departPos="5.10" departSpeed="13.89" departDelay="0.00" arrival="31.00" arrivalLane="CN_0" arrivalPos="95.25" arrivalSpeed="13.89" duration="15.00" routeLength="194.90" waitSteps="0" timeLoss="0.00" rerouteNo="0" devices="tripinfo_SN.4 routing_SN.4" vType="DEFAULT_VEHTYPE" vaporized=""/>
    <tripinfo id="EN.1" depart="4.00" departLane="EC_0" departPos="5.10" departSpeed="11.95" departDelay="0.00" arrival="34.00" arrivalLane="CN_0" arrivalPos="95.25" arrivalSpeed="13.89" duration="30.00" routeLength="190.40" waitSteps="10" timeLoss="16.11" rerouteNo="0" devices="tripinfo_EN.1 routing_EN.1" vType="DEFAULT_VEHTYPE" vaporized=""/>
    <tripinfo id="EN.2" depart="7.00" departLane="EC_0" departPos="5.10" departSpeed="13.89" departDelay="0.00" arrival="39.00" arrivalLane="CN_0" arrivalPos="95.25" arrivalSpeed="13.89" duration="32.00" routeLength="190.40" waitSteps="10" timeLoss="18.18" rerouteNo="0" devices="tripinfo_EN.2 routing_EN.2" vType="DEFAULT_VEHTYPE" vaporized=""/>
    <tripinfo id="EN.3" depart="8.00" departLane="EC_0" departPos="5.10" departSpeed="11.95" departDelay="0.00" arrival="44.00" arrivalLane="CN_0" arrivalPos="95.25" arrivalSpeed="13.89" duration="36.00" routeLength="190.40" waitSteps="11" timeLoss="22.08" rerouteNo="0" devices="tripinfo_EN.3 routing_EN.3" vType="DEFAULT_VEHTYPE" vaporized=""/>
    <tripinfo id="EN.4" depart="17.00" departLane="EC_0" departPos="5.10" departSpeed="13.89" departDelay="0.00" arrival="49.00" arrivalLane="CN_0" arrivalPos="95.25" arrivalSpeed="13.89" duration="32.00" routeLength="190.40" waitSteps="5" timeLoss="18.17" rerouteNo="0" devices="tripinfo_EN.4 routing_EN.4" vType="DEFAULT_VEHTYPE" vaporized=""/>
    <tripinfo id="EN.5" depart="19.00" departLane="EC_0" departPos="5.10" departSpeed="13.89" departDelay="0.00" arrival="54.00" arrivalLane="CN_0" arrivalPos="95.25" arrivalSpeed="13.89" duration="35.00" routeLength="190.40" waitSteps="6" timeLoss="21.15" rerouteNo="0" devices="tripinfo_EN.5 routing_EN.5" vType="DEFAULT_VEHTYPE" vaporized=""/>
    <tripinfo id="EN.6" depart="22.00" departLane="EC_0" departPos="5.10" departSpeed="13.89" departDelay="0.00" arrival="56.00" arrivalLane="CN_0" arrivalPos="95.25" arrivalSpeed="13.89" duration="34.00" routeLength="190.40" waitSteps="6" timeLoss="19.67" rerouteNo="0" devices="tripinfo_EN.6 routing_EN.6" vType="DEFAULT_VEHTYPE" vaporized=""/>
    <tripinfo id="EN.7" depart="24.00" departLane="EC_0" departPos="5.10" departSpeed="13.89" departDelay="0.00" arrival="57.00" arrivalLane="CN_0" arrivalPos="95.25" arrivalSpeed="13.89" duration="33.00" routeLength="190.40" waitSteps="6" timeLoss="19.24" rerouteNo="0" devices="tripinfo_EN.7 routing_EN.7" vType="DEFAULT_VEHTYPE" vaporized=""/>
    <tripinfo id="WE.0" depart="49.00" departLane="WC_0" departPos="5.10" departSpeed="13.89" departDelay="0.00" arrival="64.00" arrivalLane="CE_0" arrivalPos="95.25" arrivalSpeed="13.89" duration="15.00" routeLength="194.90" waitSteps="0" timeLoss="0.00" rerouteNo="0" devices="tripinfo_WE.0 routing_WE.0" vType="DEFAULT_VEHTYPE" vaporized=""/>
    <tripinfo id="WE.1" depart="57.00" departLane="WC_0" departPos="5.10" departSpeed="13.89" departDelay="0.00" arrival="72.00" arrivalLane="CE_0" arrivalPos="95.25" arrivalSpeed="13.89" duration="15.00" routeLength="194.90" waitSteps="0" timeLoss="0.00" rerouteNo="0" devices="tripinfo_WE.1 routing_WE.1" vType="DEFAULT_VEHTYPE" vaporized=""/>
    <tripinfo id="WE.2" depart="59.00" departLane="WC_0" departPos="5.10" departSpeed="13.89" departDelay="0.00" arrival="74.00" arrivalLane="CE_0" arrivalPos="95.25" arrivalSpeed="13.89" duration="15.00" routeLength="194.90" waitSteps="0" timeLoss="0.00" rerouteNo="0" devices="tripinfo_WE.2 routing_WE.2" vType="DEFAULT_VEHTYPE" vaporized=""/>
    <tripinfo id="WE.3" depart="60.00" departLane="WC_0" departPos="5.10" departSpeed="11.95" departDelay="0.00" arrival="75.00" arrivalLane="CE_0" arrivalPos="95.25" arrivalSpeed="13.89" duration="15.00" routeLength="194.90" waitSteps="0" timeLoss="0.46" rerouteNo="0" devices="tripinfo_WE.3 routing_WE.3" vType="DEFAULT_VEHTYPE" vaporized=""/>
    <tripinfo id="WE.4" depart="61.00" departLane="WC_0" departPos="5.10" departSpeed="9.75" departDelay="0.00" arrival="77.00" arrivalLane="CE_0" arrivalPos="95.25" arrivalSpeed="13.89" duration="16.00" routeLength="194.90" waitSteps="0" timeLoss="0.92" rerouteNo="0" devices="tripinfo_WE.4 routing_WE.4" vType="DEFAULT_VEHTYPE" vaporized=""/>
    <tripinfo id="WE.5" depart="66.00" departLane="WC_0" departPos="5.10" departSpeed="13.89" departDelay="0.00" arrival="81.00" arrivalLane="CE_0" arrivalPos="95.25" arrivalSpeed="13.89" duration="15.00" routeLength="194.90" waitSteps="0" timeLoss="0.00" rerouteNo="0" devices="tripinfo_WE.5 routing_WE.5" vType="DEFAULT_VEHTYPE" vaporized=""/>
    <tripinfo id="SE.0" depart="51.00" departLane="SC_0" departPos="5.10" departSpeed="13.89" departDelay="0.00" arrival="84.00" arrivalLane="CE_0" arrivalPos="95.25" arrivalSpeed="13.89" duration="33.00" routeLength="190.40" waitSteps="15" timeLoss="19.20" rerouteNo="0" devices="tripinfo_SE.0 routing_SE.0" vType="DEFAULT_VEHTYPE" vaporized=""/>
    <tripinfo id="SE.1" depart="53.00" departLane="SC_0" departPos="5.10" departSpeed="13.89" departDelay="0.00" arrival="89.00" arrivalLane="CE_0" arrivalPos="95.25" arrivalSpeed="13.89" duration="36.00" routeLength="190.40" waitSteps="16" timeLoss="22.16" rerouteNo="0" devices="tripinfo_SE.1 routing_SE.1" vType="DEFAULT_VEHTYPE" vaporized=""/>
    <tripinfo id="SE.2" depart="56.00" departLane="SC_0" departPos="5.10" departSpeed="13.89" departDelay="0.00" arrival="94.00" arrivalLane="CE_0" arrivalPos="95.25" arrivalSpeed="13.89" duration="38.00" routeLength="190.40" waitSteps="16" timeLoss="24.18" rerouteNo="0" devices="tripinfo_SE.2 routing_SE.2" vType="DEFAULT_VEHTYPE" vaporized=""/>
    <tripinfo id="SE.3" depart="57.00" departLane="SC_0" departPos="5.10" departSpeed="11.95" departDelay="0.00" arrival="99.00" arrivalLane="CE_0" arrivalPos="95.25" arrivalSpeed="13.89" duration="42.00" routeLength="190.40" waitSteps="17" timeLoss="28.08" rerouteNo="0" devices="tripinfo_SE.3 routing_SE.3" vType="DEFAULT_VEHTYPE" vaporized=""/>
    <tripinfo id="SE.4" depart="58.00" departLane="SC_0" departPos="5.10" departSpeed="9.75" departDelay="0.00" arrival="101.00" arrivalLane="CE_0" arrivalPos="95.25" arrivalSpeed="13.89" duration="43.00" routeLength="190.40" waitSteps="17" timeLoss="28.53" rerouteNo="0" devices="tripinfo_SE.4 routing_SE.4" vType="DEFAULT_VEHTYPE" vaporized=""/>
    <tripinfo id="SE.5" depart="61.00" departLane="SC_0" departPos="5.10" departSpeed="13.89" departDelay="0.00" arrival="102.00" arrivalLane="CE_0" arrivalPos="95.25" arrivalSpeed="13.89" duration="41.00" routeLength="190.40" waitSteps="16" timeLoss="27.22" rerouteNo="0" devices="tripinfo_SE.5 routing_SE.5" vType="DEFAULT_VEHTYPE" vaporized=""/>
    <tripinfo id="SE.6" depart="63.00" departLane="SC_0" departPos="5.10" departSpeed="13.89" departDelay="0.00" arrival="104.00" arrivalLane="CE_0" arrivalPos="95.25" arrivalSpeed="13.89" duration="41.00" routeLength="190.40" waitSteps="16" timeLoss="26.77" rerouteNo="0" devices="tripinfo_SE.6 routing_SE.6" vType="DEFAULT_VEHTYPE" vaporized=""/>
</tripinfos>
