<?xml version="1.0" encoding="UTF-8"?>

<!-- generated on Wed Mar 23 08:38:38 2016 by SUMO Version dev-SVN-r20278
<?xml version="1.0" encoding="UTF-8"?>

<configuration xmlns:xsi="http://www.w3.org/2001/XMLSchema-instance" xsi:noNamespaceSchemaLocation="http://sumo.dlr.de/xsd/sumoConfiguration.xsd">

    <input>
        <net-file value="net2.net.xml"/>
        <route-files value="input_routes.rou.xml"/>
    </input>

    <output>
        <fcd-output value="fcd.xml"/>
        <tripinfo-output value="tripinfos.xml"/>
    </output>

    <report>
        <xml-validation value="never"/>
        <no-step-log value="true"/>
    </report>

</configuration>
-->

<fcd-export xmlns:xsi="http://www.w3.org/2001/XMLSchema-instance" xsi:noNamespaceSchemaLocation="http://sumo.dlr.de/xsd/fcd_file.xsd">
    <timestep time="0.00">
        <vehicle id="overtaking" x="146.83" y="-1.65" angle="90.00" type="DEFAULT_VEHTYPE" speed="0.00" pos="100.00" lane="VODUGES_end_0" slope="0.00"/>
        <vehicle id="stopped" x="185.57" y="-1.65" angle="90.00" type="DEFAULT_VEHTYPE" speed="0.00" pos="140.00" lane="VODUGES_end_0" slope="0.00"/>
    </timestep>
    <timestep time="1.00">
        <vehicle id="overtaking" x="148.45" y="-1.65" angle="90.00" type="DEFAULT_VEHTYPE" speed="1.67" pos="101.67" lane="VODUGES_end_0" slope="0.00"/>
        <vehicle id="stopped" x="186.96" y="-1.65" angle="90.00" type="DEFAULT_VEHTYPE" speed="1.44" pos="141.44" lane="VODUGES_end_0" slope="0.00"/>
    </timestep>
    <timestep time="2.00">
        <vehicle id="overtaking" x="151.97" y="-1.65" angle="90.00" type="DEFAULT_VEHTYPE" speed="3.63" pos="105.31" lane="VODUGES_end_0" slope="0.00"/>
        <vehicle id="stopped" x="190.82" y="-1.65" angle="90.00" type="DEFAULT_VEHTYPE" speed="3.98" pos="145.42" lane="VODUGES_end_0" slope="0.00"/>
    </timestep>
    <timestep time="3.00">
        <vehicle id="overtaking" x="157.96" y="-1.65" angle="90.00" type="DEFAULT_VEHTYPE" speed="6.18" pos="111.49" lane="VODUGES_end_0" slope="0.00"/>
        <vehicle id="stopped" x="193.54" y="-1.65" angle="90.00" type="DEFAULT_VEHTYPE" speed="2.81" pos="148.23" lane="VODUGES_end_0" slope="0.00"/>
    </timestep>
    <timestep time="4.00">
        <vehicle id="overtaking" x="166.15" y="-1.65" angle="90.00" type="DEFAULT_VEHTYPE" speed="8.46" pos="119.94" lane="VODUGES_end_0" slope="0.00"/>
        <vehicle id="stopped" x="194.00" y="-1.65" angle="90.00" type="DEFAULT_VEHTYPE" speed="0.48" pos="148.71" lane="VODUGES_end_0" slope="0.00"/>
    </timestep>
    <timestep time="5.00">
        <vehicle id="overtaking" x="175.91" y="-1.65" angle="90.00" type="DEFAULT_VEHTYPE" speed="10.09" pos="130.03" lane="VODUGES_end_0" slope="0.00"/>
        <vehicle id="stopped" x="194.00" y="-1.65" angle="90.00" type="DEFAULT_VEHTYPE" speed="0.00" pos="148.71" lane="VODUGES_end_0" slope="0.00"/>
    </timestep>
    <timestep time="6.00">
        <vehicle id="overtaking" x="182.66" y="-1.65" angle="90.00" type="DEFAULT_VEHTYPE" speed="6.97" pos="137.00" lane="VODUGES_end_0" slope="0.00"/>
        <vehicle id="stopped" x="194.00" y="-1.65" angle="90.00" type="DEFAULT_VEHTYPE" speed="0.00" pos="148.71" lane="VODUGES_end_0" slope="0.00"/>
    </timestep>
    <timestep time="7.00">
        <vehicle id="overtaking" x="186.17" y="-1.65" angle="90.00" type="DEFAULT_VEHTYPE" speed="3.63" pos="140.63" lane="VODUGES_end_0" slope="0.00"/>
        <vehicle id="stopped" x="194.00" y="-1.65" angle="90.00" type="DEFAULT_VEHTYPE" speed="0.00" pos="148.71" lane="VODUGES_end_0" slope="0.00"/>
    </timestep>
    <timestep time="8.00">
        <vehicle id="overtaking" x="186.67" y="-1.65" angle="90.00" type="DEFAULT_VEHTYPE" speed="0.51" pos="141.14" lane="VODUGES_end_0" slope="0.00"/>
        <vehicle id="stopped" x="194.00" y="-1.65" angle="90.00" type="DEFAULT_VEHTYPE" speed="0.00" pos="148.71" lane="VODUGES_end_0" slope="0.00"/>
    </timestep>
    <timestep time="9.00">
        <vehicle id="overtaking" x="186.71" y="-1.65" angle="90.00" type="DEFAULT_VEHTYPE" speed="0.04" pos="141.18" lane="VODUGES_end_0" slope="0.00"/>
        <vehicle id="stopped" x="194.00" y="-1.65" angle="90.00" type="DEFAULT_VEHTYPE" speed="0.00" pos="148.71" lane="VODUGES_end_0" slope="0.00"/>
    </timestep>
    <timestep time="10.00">
        <vehicle id="overtaking" x="186.73" y="-1.65" angle="90.00" type="DEFAULT_VEHTYPE" speed="0.02" pos="141.20" lane="VODUGES_end_0" slope="0.00"/>
        <vehicle id="stopped" x="194.00" y="-1.65" angle="90.00" type="DEFAULT_VEHTYPE" speed="0.00" pos="148.71" lane="VODUGES_end_0" slope="0.00"/>
    </timestep>
    <timestep time="11.00">
        <vehicle id="overtaking" x="186.74" y="-1.65" angle="90.00" type="DEFAULT_VEHTYPE" speed="0.01" pos="141.21" lane="VODUGES_end_0" slope="0.00"/>
        <vehicle id="stopped" x="194.00" y="-1.65" angle="90.00" type="DEFAULT_VEHTYPE" speed="0.00" pos="148.71" lane="VODUGES_end_0" slope="0.00"/>
    </timestep>
    <timestep time="12.00">
        <vehicle id="overtaking" x="186.74" y="-1.65" angle="90.00" type="DEFAULT_VEHTYPE" speed="0.00" pos="141.21" lane="VODUGES_end_0" slope="0.00"/>
        <vehicle id="stopped" x="194.00" y="-1.65" angle="90.00" type="DEFAULT_VEHTYPE" speed="0.00" pos="148.71" lane="VODUGES_end_0" slope="0.00"/>
    </timestep>
    <timestep time="13.00">
        <vehicle id="overtaking" x="186.74" y="-1.65" angle="90.00" type="DEFAULT_VEHTYPE" speed="0.00" pos="141.21" lane="VODUGES_end_0" slope="0.00"/>
        <vehicle id="stopped" x="194.00" y="-1.65" angle="90.00" type="DEFAULT_VEHTYPE" speed="0.00" pos="148.71" lane="VODUGES_end_0" slope="0.00"/>
    </timestep>
    <timestep time="14.00">
        <vehicle id="overtaking" x="186.74" y="-1.65" angle="90.00" type="DEFAULT_VEHTYPE" speed="0.00" pos="141.21" lane="VODUGES_end_0" slope="0.00"/>
        <vehicle id="stopped" x="194.00" y="-1.65" angle="90.00" type="DEFAULT_VEHTYPE" speed="0.00" pos="148.71" lane="VODUGES_end_0" slope="0.00"/>
    </timestep>
    <timestep time="15.00">
        <vehicle id="overtaking" x="186.74" y="-1.65" angle="90.00" type="DEFAULT_VEHTYPE" speed="0.00" pos="141.21" lane="VODUGES_end_0" slope="0.00"/>
        <vehicle id="stopped" x="194.00" y="-1.65" angle="90.00" type="DEFAULT_VEHTYPE" speed="0.00" pos="148.71" lane="VODUGES_end_0" slope="0.00"/>
    </timestep>
    <timestep time="16.00">
        <vehicle id="overtaking" x="186.74" y="-1.65" angle="90.00" type="DEFAULT_VEHTYPE" speed="0.00" pos="141.21" lane="VODUGES_end_0" slope="0.00"/>
        <vehicle id="stopped" x="194.00" y="-1.65" angle="90.00" type="DEFAULT_VEHTYPE" speed="0.00" pos="148.71" lane="VODUGES_end_0" slope="0.00"/>
    </timestep>
    <timestep time="17.00">
        <vehicle id="overtaking" x="186.74" y="-1.65" angle="90.00" type="DEFAULT_VEHTYPE" speed="0.00" pos="141.21" lane="VODUGES_end_0" slope="0.00"/>
        <vehicle id="stopped" x="194.00" y="-1.65" angle="90.00" type="DEFAULT_VEHTYPE" speed="0.00" pos="148.71" lane="VODUGES_end_0" slope="0.00"/>
    </timestep>
    <timestep time="18.00">
        <vehicle id="overtaking" x="186.74" y="-1.65" angle="90.00" type="DEFAULT_VEHTYPE" speed="0.00" pos="141.21" lane="VODUGES_end_0" slope="0.00"/>
        <vehicle id="stopped" x="194.00" y="-1.65" angle="90.00" type="DEFAULT_VEHTYPE" speed="0.00" pos="148.71" lane="VODUGES_end_0" slope="0.00"/>
    </timestep>
    <timestep time="19.00">
        <vehicle id="overtaking" x="186.74" y="-1.65" angle="90.00" type="DEFAULT_VEHTYPE" speed="0.00" pos="141.21" lane="VODUGES_end_0" slope="0.00"/>
        <vehicle id="stopped" x="194.00" y="-1.65" angle="90.00" type="DEFAULT_VEHTYPE" speed="0.00" pos="148.71" lane="VODUGES_end_0" slope="0.00"/>
    </timestep>
    <timestep time="20.00">
        <vehicle id="overtaking" x="186.74" y="-1.65" angle="90.00" type="DEFAULT_VEHTYPE" speed="0.00" pos="141.21" lane="VODUGES_end_0" slope="0.00"/>
        <vehicle id="stopped" x="194.00" y="-1.65" angle="90.00" type="DEFAULT_VEHTYPE" speed="0.00" pos="148.71" lane="VODUGES_end_0" slope="0.00"/>
    </timestep>
    <timestep time="21.00">
        <vehicle id="overtaking" x="186.74" y="-1.65" angle="90.00" type="DEFAULT_VEHTYPE" speed="0.00" pos="141.21" lane="VODUGES_end_0" slope="0.00"/>
        <vehicle id="stopped" x="194.00" y="-1.65" angle="90.00" type="DEFAULT_VEHTYPE" speed="0.00" pos="148.71" lane="VODUGES_end_0" slope="0.00"/>
    </timestep>
    <timestep time="22.00">
        <vehicle id="overtaking" x="186.74" y="-1.65" angle="90.00" type="DEFAULT_VEHTYPE" speed="0.00" pos="141.21" lane="VODUGES_end_0" slope="0.00"/>
        <vehicle id="stopped" x="194.00" y="-1.65" angle="90.00" type="DEFAULT_VEHTYPE" speed="0.00" pos="148.71" lane="VODUGES_end_0" slope="0.00"/>
    </timestep>
    <timestep time="23.00">
        <vehicle id="overtaking" x="186.74" y="-1.65" angle="90.00" type="DEFAULT_VEHTYPE" speed="0.00" pos="141.21" lane="VODUGES_end_0" slope="0.00"/>
        <vehicle id="stopped" x="194.00" y="-1.65" angle="90.00" type="DEFAULT_VEHTYPE" speed="0.00" pos="148.71" lane="VODUGES_end_0" slope="0.00"/>
    </timestep>
    <timestep time="24.00">
        <vehicle id="overtaking" x="186.74" y="-1.65" angle="90.00" type="DEFAULT_VEHTYPE" speed="0.00" pos="141.21" lane="VODUGES_end_0" slope="0.00"/>
        <vehicle id="stopped" x="194.00" y="-1.65" angle="90.00" type="DEFAULT_VEHTYPE" speed="0.00" pos="148.71" lane="VODUGES_end_0" slope="0.00"/>
    </timestep>
    <timestep time="25.00">
        <vehicle id="overtaking" x="186.74" y="-1.65" angle="90.00" type="DEFAULT_VEHTYPE" speed="0.00" pos="141.21" lane="VODUGES_end_0" slope="0.00"/>
        <vehicle id="stopped" x="194.00" y="-1.65" angle="90.00" type="DEFAULT_VEHTYPE" speed="0.00" pos="148.71" lane="VODUGES_end_0" slope="0.00"/>
    </timestep>
    <timestep time="26.00">
        <vehicle id="overtaking" x="186.74" y="-1.65" angle="90.00" type="DEFAULT_VEHTYPE" speed="0.00" pos="141.21" lane="VODUGES_end_0" slope="0.00"/>
        <vehicle id="stopped" x="194.00" y="-1.65" angle="90.00" type="DEFAULT_VEHTYPE" speed="0.00" pos="148.71" lane="VODUGES_end_0" slope="0.00"/>
    </timestep>
    <timestep time="27.00">
        <vehicle id="overtaking" x="186.74" y="-1.65" angle="90.00" type="DEFAULT_VEHTYPE" speed="0.00" pos="141.21" lane="VODUGES_end_0" slope="0.00"/>
        <vehicle id="stopped" x="194.00" y="-1.65" angle="90.00" type="DEFAULT_VEHTYPE" speed="0.00" pos="148.71" lane="VODUGES_end_0" slope="0.00"/>
    </timestep>
    <timestep time="28.00">
        <vehicle id="overtaking" x="186.74" y="-1.65" angle="90.00" type="DEFAULT_VEHTYPE" speed="0.00" pos="141.21" lane="VODUGES_end_0" slope="0.00"/>
        <vehicle id="stopped" x="194.00" y="-1.65" angle="90.00" type="DEFAULT_VEHTYPE" speed="0.00" pos="148.71" lane="VODUGES_end_0" slope="0.00"/>
    </timestep>
    <timestep time="29.00">
        <vehicle id="overtaking" x="186.74" y="-1.65" angle="90.00" type="DEFAULT_VEHTYPE" speed="0.00" pos="141.21" lane="VODUGES_end_0" slope="0.00"/>
        <vehicle id="stopped" x="194.00" y="-1.65" angle="90.00" type="DEFAULT_VEHTYPE" speed="0.00" pos="148.71" lane="VODUGES_end_0" slope="0.00"/>
    </timestep>
    <timestep time="30.00">
        <vehicle id="overtaking" x="186.74" y="-1.65" angle="90.00" type="DEFAULT_VEHTYPE" speed="0.00" pos="141.21" lane="VODUGES_end_0" slope="0.00"/>
        <vehicle id="stopped" x="194.00" y="-1.65" angle="90.00" type="DEFAULT_VEHTYPE" speed="0.00" pos="148.71" lane="VODUGES_end_0" slope="0.00"/>
    </timestep>
    <timestep time="31.00">
        <vehicle id="overtaking" x="186.74" y="-1.65" angle="90.00" type="DEFAULT_VEHTYPE" speed="0.00" pos="141.21" lane="VODUGES_end_0" slope="0.00"/>
        <vehicle id="stopped" x="194.00" y="-1.65" angle="90.00" type="DEFAULT_VEHTYPE" speed="0.00" pos="148.71" lane="VODUGES_end_0" slope="0.00"/>
    </timestep>
    <timestep time="32.00">
        <vehicle id="overtaking" x="186.74" y="-1.65" angle="90.00" type="DEFAULT_VEHTYPE" speed="0.00" pos="141.21" lane="VODUGES_end_0" slope="0.00"/>
        <vehicle id="stopped" x="194.00" y="-1.65" angle="90.00" type="DEFAULT_VEHTYPE" speed="0.00" pos="148.71" lane="VODUGES_end_0" slope="0.00"/>
    </timestep>
    <timestep time="33.00">
        <vehicle id="overtaking" x="186.74" y="-1.65" angle="90.00" type="DEFAULT_VEHTYPE" speed="0.00" pos="141.21" lane="VODUGES_end_0" slope="0.00"/>
        <vehicle id="stopped" x="194.00" y="-1.65" angle="90.00" type="DEFAULT_VEHTYPE" speed="0.00" pos="148.71" lane="VODUGES_end_0" slope="0.00"/>
    </timestep>
    <timestep time="34.00">
        <vehicle id="overtaking" x="186.74" y="-1.65" angle="90.00" type="DEFAULT_VEHTYPE" speed="0.00" pos="141.21" lane="VODUGES_end_0" slope="0.00"/>
        <vehicle id="stopped" x="194.00" y="-1.65" angle="90.00" type="DEFAULT_VEHTYPE" speed="0.00" pos="148.71" lane="VODUGES_end_0" slope="0.00"/>
    </timestep>
    <timestep time="35.00">
        <vehicle id="overtaking" x="186.74" y="-1.65" angle="90.00" type="DEFAULT_VEHTYPE" speed="0.00" pos="141.21" lane="VODUGES_end_0" slope="0.00"/>
        <vehicle id="stopped" x="194.00" y="-1.65" angle="90.00" type="DEFAULT_VEHTYPE" speed="0.00" pos="148.71" lane="VODUGES_end_0" slope="0.00"/>
    </timestep>
    <timestep time="36.00">
        <vehicle id="overtaking" x="186.74" y="-1.65" angle="90.00" type="DEFAULT_VEHTYPE" speed="0.00" pos="141.21" lane="VODUGES_end_0" slope="0.00"/>
        <vehicle id="stopped" x="194.00" y="-1.65" angle="90.00" type="DEFAULT_VEHTYPE" speed="0.00" pos="148.71" lane="VODUGES_end_0" slope="0.00"/>
    </timestep>
    <timestep time="37.00">
        <vehicle id="overtaking" x="186.74" y="-1.65" angle="90.00" type="DEFAULT_VEHTYPE" speed="0.00" pos="141.21" lane="VODUGES_end_0" slope="0.00"/>
        <vehicle id="stopped" x="194.00" y="-1.65" angle="90.00" type="DEFAULT_VEHTYPE" speed="0.00" pos="148.71" lane="VODUGES_end_0" slope="0.00"/>
    </timestep>
    <timestep time="38.00">
        <vehicle id="overtaking" x="186.74" y="-1.65" angle="90.00" type="DEFAULT_VEHTYPE" speed="0.00" pos="141.21" lane="VODUGES_end_0" slope="0.00"/>
        <vehicle id="stopped" x="194.00" y="-1.65" angle="90.00" type="DEFAULT_VEHTYPE" speed="0.00" pos="148.71" lane="VODUGES_end_0" slope="0.00"/>
    </timestep>
    <timestep time="39.00">
        <vehicle id="overtaking" x="186.74" y="-1.65" angle="90.00" type="DEFAULT_VEHTYPE" speed="0.00" pos="141.21" lane="VODUGES_end_0" slope="0.00"/>
        <vehicle id="stopped" x="194.00" y="-1.65" angle="90.00" type="DEFAULT_VEHTYPE" speed="0.00" pos="148.71" lane="VODUGES_end_0" slope="0.00"/>
    </timestep>
    <timestep time="40.00">
        <vehicle id="overtaking" x="186.74" y="-1.65" angle="90.00" type="DEFAULT_VEHTYPE" speed="0.00" pos="141.21" lane="VODUGES_end_0" slope="0.00"/>
        <vehicle id="stopped" x="194.00" y="-1.65" angle="90.00" type="DEFAULT_VEHTYPE" speed="0.00" pos="148.71" lane="VODUGES_end_0" slope="0.00"/>
    </timestep>
    <timestep time="41.00">
        <vehicle id="overtaking" x="186.74" y="-1.65" angle="90.00" type="DEFAULT_VEHTYPE" speed="0.00" pos="141.21" lane="VODUGES_end_0" slope="0.00"/>
        <vehicle id="stopped" x="194.00" y="-1.65" angle="90.00" type="DEFAULT_VEHTYPE" speed="0.00" pos="148.71" lane="VODUGES_end_0" slope="0.00"/>
    </timestep>
    <timestep time="42.00">
        <vehicle id="overtaking" x="186.74" y="-1.65" angle="90.00" type="DEFAULT_VEHTYPE" speed="0.00" pos="141.21" lane="VODUGES_end_0" slope="0.00"/>
        <vehicle id="stopped" x="194.00" y="-1.65" angle="90.00" type="DEFAULT_VEHTYPE" speed="0.00" pos="148.71" lane="VODUGES_end_0" slope="0.00"/>
    </timestep>
    <timestep time="43.00">
        <vehicle id="overtaking" x="186.74" y="-1.65" angle="90.00" type="DEFAULT_VEHTYPE" speed="0.00" pos="141.21" lane="VODUGES_end_0" slope="0.00"/>
        <vehicle id="stopped" x="194.00" y="-1.65" angle="90.00" type="DEFAULT_VEHTYPE" speed="0.00" pos="148.71" lane="VODUGES_end_0" slope="0.00"/>
    </timestep>
    <timestep time="44.00">
        <vehicle id="overtaking" x="186.74" y="-1.65" angle="90.00" type="DEFAULT_VEHTYPE" speed="0.00" pos="141.21" lane="VODUGES_end_0" slope="0.00"/>
        <vehicle id="stopped" x="194.00" y="-1.65" angle="90.00" type="DEFAULT_VEHTYPE" speed="0.00" pos="148.71" lane="VODUGES_end_0" slope="0.00"/>
    </timestep>
    <timestep time="45.00">
        <vehicle id="overtaking" x="186.74" y="-1.65" angle="90.00" type="DEFAULT_VEHTYPE" speed="0.00" pos="141.21" lane="VODUGES_end_0" slope="0.00"/>
        <vehicle id="stopped" x="194.00" y="-1.65" angle="90.00" type="DEFAULT_VEHTYPE" speed="0.00" pos="148.71" lane="VODUGES_end_0" slope="0.00"/>
    </timestep>
    <timestep time="46.00">
        <vehicle id="overtaking" x="186.74" y="-1.65" angle="90.00" type="DEFAULT_VEHTYPE" speed="0.00" pos="141.21" lane="VODUGES_end_0" slope="0.00"/>
        <vehicle id="stopped" x="194.00" y="-1.65" angle="90.00" type="DEFAULT_VEHTYPE" speed="0.00" pos="148.71" lane="VODUGES_end_0" slope="0.00"/>
    </timestep>
    <timestep time="47.00">
        <vehicle id="overtaking" x="186.74" y="-1.65" angle="90.00" type="DEFAULT_VEHTYPE" speed="0.00" pos="141.21" lane="VODUGES_end_0" slope="0.00"/>
        <vehicle id="stopped" x="194.00" y="-1.65" angle="90.00" type="DEFAULT_VEHTYPE" speed="0.00" pos="148.71" lane="VODUGES_end_0" slope="0.00"/>
    </timestep>
    <timestep time="48.00">
        <vehicle id="overtaking" x="186.74" y="-1.65" angle="90.00" type="DEFAULT_VEHTYPE" speed="0.00" pos="141.21" lane="VODUGES_end_0" slope="0.00"/>
        <vehicle id="stopped" x="194.00" y="-1.65" angle="90.00" type="DEFAULT_VEHTYPE" speed="0.00" pos="148.71" lane="VODUGES_end_0" slope="0.00"/>
    </timestep>
    <timestep time="49.00">
        <vehicle id="overtaking" x="186.74" y="-1.65" angle="90.00" type="DEFAULT_VEHTYPE" speed="0.00" pos="141.21" lane="VODUGES_end_0" slope="0.00"/>
        <vehicle id="stopped" x="194.00" y="-1.65" angle="90.00" type="DEFAULT_VEHTYPE" speed="0.00" pos="148.71" lane="VODUGES_end_0" slope="0.00"/>
    </timestep>
    <timestep time="50.00">
        <vehicle id="overtaking" x="186.74" y="-1.65" angle="90.00" type="DEFAULT_VEHTYPE" speed="0.00" pos="141.21" lane="VODUGES_end_0" slope="0.00"/>
        <vehicle id="stopped" x="194.00" y="-1.65" angle="90.00" type="DEFAULT_VEHTYPE" speed="0.00" pos="148.71" lane="VODUGES_end_0" slope="0.00"/>
    </timestep>
    <timestep time="51.00">
        <vehicle id="overtaking" x="186.74" y="-1.65" angle="90.00" type="DEFAULT_VEHTYPE" speed="0.00" pos="141.21" lane="VODUGES_end_0" slope="0.00"/>
        <vehicle id="stopped" x="194.00" y="-1.65" angle="90.00" type="DEFAULT_VEHTYPE" speed="0.00" pos="148.71" lane="VODUGES_end_0" slope="0.00"/>
    </timestep>
    <timestep time="52.00">
        <vehicle id="overtaking" x="186.74" y="-1.65" angle="90.00" type="DEFAULT_VEHTYPE" speed="0.00" pos="141.21" lane="VODUGES_end_0" slope="0.00"/>
        <vehicle id="stopped" x="194.00" y="-1.65" angle="90.00" type="DEFAULT_VEHTYPE" speed="0.00" pos="148.71" lane="VODUGES_end_0" slope="0.00"/>
    </timestep>
    <timestep time="53.00">
        <vehicle id="overtaking" x="186.74" y="-1.65" angle="90.00" type="DEFAULT_VEHTYPE" speed="0.00" pos="141.21" lane="VODUGES_end_0" slope="0.00"/>
        <vehicle id="stopped" x="194.00" y="-1.65" angle="90.00" type="DEFAULT_VEHTYPE" speed="0.00" pos="148.71" lane="VODUGES_end_0" slope="0.00"/>
    </timestep>
    <timestep time="54.00">
        <vehicle id="overtaking" x="186.74" y="-1.65" angle="90.00" type="DEFAULT_VEHTYPE" speed="0.00" pos="141.21" lane="VODUGES_end_0" slope="0.00"/>
        <vehicle id="stopped" x="194.00" y="-1.65" angle="90.00" type="DEFAULT_VEHTYPE" speed="0.00" pos="148.71" lane="VODUGES_end_0" slope="0.00"/>
    </timestep>
    <timestep time="55.00">
        <vehicle id="overtaking" x="186.74" y="-1.65" angle="90.00" type="DEFAULT_VEHTYPE" speed="0.00" pos="141.21" lane="VODUGES_end_0" slope="0.00"/>
        <vehicle id="stopped" x="194.18" y="-1.65" angle="90.00" type="DEFAULT_VEHTYPE" speed="0.19" pos="148.90" lane="VODUGES_end_0" slope="0.00"/>
    </timestep>
    <timestep time="56.00">
        <vehicle id="overtaking" x="186.86" y="-1.65" angle="90.00" type="DEFAULT_VEHTYPE" speed="0.12" pos="141.34" lane="VODUGES_end_0" slope="0.00"/>
        <vehicle id="stopped" x="202.52" y="-1.65" angle="90.00" type="DEFAULT_VEHTYPE" speed="2.18" pos="1.08" lane="end2_0" slope="0.00"/>
    </timestep>
    <timestep time="57.00">
        <vehicle id="overtaking" x="188.18" y="-1.65" angle="90.00" type="DEFAULT_VEHTYPE" speed="1.37" pos="142.70" lane="VODUGES_end_0" slope="0.00"/>
        <vehicle id="stopped" x="206.90" y="-1.65" angle="90.00" type="DEFAULT_VEHTYPE" speed="4.41" pos="5.49" lane="end2_0" slope="0.00"/>
    </timestep>
    <timestep time="58.00">
        <vehicle id="overtaking" x="191.13" y="-1.65" angle="90.00" type="DEFAULT_VEHTYPE" speed="3.04" pos="145.74" lane="VODUGES_end_0" slope="0.00"/>
        <vehicle id="stopped" x="213.70" y="-1.65" angle="90.00" type="DEFAULT_VEHTYPE" speed="6.85" pos="12.34" lane="end2_0" slope="0.00"/>
    </timestep>
    <timestep time="59.00">
        <vehicle id="overtaking" x="201.90" y="-1.65" angle="90.00" type="DEFAULT_VEHTYPE" speed="4.71" pos="0.45" lane="end2_0" slope="0.00"/>
        <vehicle id="stopped" x="222.91" y="-1.65" angle="90.00" type="DEFAULT_VEHTYPE" speed="9.27" pos="21.61" lane="end2_0" slope="0.00"/>
    </timestep>
    <timestep time="60.00">
        <vehicle id="overtaking" x="208.68" y="-1.65" angle="90.00" type="DEFAULT_VEHTYPE" speed="6.83" pos="7.28" lane="end2_0" slope="0.00"/>
        <vehicle id="stopped" x="233.55" y="-1.65" angle="90.00" type="DEFAULT_VEHTYPE" speed="10.72" pos="32.33" lane="end2_0" slope="0.00"/>
    </timestep>
    <timestep time="61.00">
        <vehicle id="overtaking" x="217.99" y="-1.65" angle="90.00" type="DEFAULT_VEHTYPE" speed="9.37" pos="16.66" lane="end2_0" slope="0.00"/>
        <vehicle id="stopped" x="246.16" y="-1.65" angle="90.00" type="DEFAULT_VEHTYPE" speed="12.70" pos="45.03" lane="end2_0" slope="0.00"/>
    </timestep>
    <timestep time="62.00">
        <vehicle id="overtaking" x="229.00" y="-1.65" angle="90.00" type="DEFAULT_VEHTYPE" speed="11.10" pos="27.75" lane="end2_0" slope="0.00"/>
        <vehicle id="stopped" x="259.44" y="-1.65" angle="90.00" type="DEFAULT_VEHTYPE" speed="13.38" pos="58.41" lane="end2_0" slope="0.00"/>
    </timestep>
    <timestep time="63.00">
        <vehicle id="overtaking" x="241.51" y="-1.65" angle="90.00" type="DEFAULT_VEHTYPE" speed="12.60" pos="40.35" lane="end2_0" slope="0.00"/>
        <vehicle id="stopped" x="271.97" y="-1.65" angle="90.00" type="DEFAULT_VEHTYPE" speed="12.62" pos="71.03" lane="end2_0" slope="0.00"/>
    </timestep>
    <timestep time="64.00">
        <vehicle id="overtaking" x="254.13" y="-1.65" angle="90.00" type="DEFAULT_VEHTYPE" speed="12.71" pos="53.06" lane="end2_0" slope="0.00"/>
        <vehicle id="stopped" x="285.56" y="-1.65" angle="90.00" type="DEFAULT_VEHTYPE" speed="13.69" pos="84.72" lane="end2_0" slope="0.00"/>
    </timestep>
    <timestep time="65.00">
        <vehicle id="overtaking" x="267.06" y="-1.65" angle="90.00" type="DEFAULT_VEHTYPE" speed="13.03" pos="66.09" lane="end2_0" slope="0.00"/>
        <vehicle id="stopped" x="298.90" y="-1.65" angle="90.00" type="DEFAULT_VEHTYPE" speed="13.44" pos="98.16" lane="end2_0" slope="0.00"/>
    </timestep>
    <timestep time="66.00">
        <vehicle id="overtaking" x="280.09" y="-1.65" angle="90.00" type="DEFAULT_VEHTYPE" speed="13.12" pos="79.22" lane="end2_0" slope="0.00"/>
        <vehicle id="stopped" x="312.14" y="-1.65" angle="90.00" type="DEFAULT_VEHTYPE" speed="13.33" pos="111.49" lane="end2_0" slope="0.00"/>
    </timestep>
    <timestep time="67.00">
        <vehicle id="overtaking" x="293.39" y="-1.65" angle="90.00" type="DEFAULT_VEHTYPE" speed="13.40" pos="92.61" lane="end2_0" slope="0.00"/>
        <vehicle id="stopped" x="325.57" y="-1.65" angle="90.00" type="DEFAULT_VEHTYPE" speed="13.53" pos="125.02" lane="end2_0" slope="0.00"/>
    </timestep>
    <timestep time="68.00">
        <vehicle id="overtaking" x="306.42" y="-1.65" angle="90.00" type="DEFAULT_VEHTYPE" speed="13.12" pos="105.73" lane="end2_0" slope="0.00"/>
        <vehicle id="stopped" x="338.48" y="-1.65" angle="90.00" type="DEFAULT_VEHTYPE" speed="13.00" pos="138.03" lane="end2_0" slope="0.00"/>
    </timestep>
    <timestep time="69.00">
        <vehicle id="overtaking" x="320.07" y="-1.65" angle="90.00" type="DEFAULT_VEHTYPE" speed="13.76" pos="119.49" lane="end2_0" slope="0.00"/>
        <vehicle id="stopped" x="351.53" y="-1.65" angle="90.00" type="DEFAULT_VEHTYPE" speed="13.14" pos="151.17" lane="end2_0" slope="0.00"/>
    </timestep>
    <timestep time="70.00">
        <vehicle id="overtaking" x="333.03" y="-1.65" angle="90.00" type="DEFAULT_VEHTYPE" speed="13.06" pos="132.55" lane="end2_0" slope="0.00"/>
        <vehicle id="stopped" x="364.21" y="-1.65" angle="90.00" type="DEFAULT_VEHTYPE" speed="12.78" pos="163.95" lane="end2_0" slope="0.00"/>
    </timestep>
    <timestep time="71.00">
        <vehicle id="overtaking" x="345.60" y="-1.65" angle="90.00" type="DEFAULT_VEHTYPE" speed="12.66" pos="145.21" lane="end2_0" slope="0.00"/>
        <vehicle id="stopped" x="376.94" y="-1.65" angle="90.00" type="DEFAULT_VEHTYPE" speed="12.82" pos="176.77" lane="end2_0" slope="0.00"/>
    </timestep>
    <timestep time="72.00">
        <vehicle id="overtaking" x="359.38" y="-1.65" angle="90.00" type="DEFAULT_VEHTYPE" speed="13.87" pos="159.08" lane="end2_0" slope="0.00"/>
        <vehicle id="stopped" x="390.02" y="-1.65" angle="90.00" type="DEFAULT_VEHTYPE" speed="13.18" pos="189.95" lane="end2_0" slope="0.00"/>
    </timestep>
    <timestep time="73.00">
        <vehicle id="overtaking" x="372.02" y="-1.65" angle="90.00" type="DEFAULT_VEHTYPE" speed="12.74" pos="171.82" lane="end2_0" slope="0.00"/>
    </timestep>
    <timestep time="74.00">
        <vehicle id="overtaking" x="385.19" y="-1.65" angle="90.00" type="DEFAULT_VEHTYPE" speed="13.26" pos="185.08" lane="end2_0" slope="0.00"/>
    </timestep>
    <timestep time="75.00">
        <vehicle id="overtaking" x="397.81" y="-1.65" angle="90.00" type="DEFAULT_VEHTYPE" speed="12.72" pos="197.79" lane="end2_0" slope="0.00"/>
    </timestep>
    <timestep time="76.00"/>
</fcd-export>
