<?xml version="1.0" encoding="UTF-8"?>

<!-- generated on Tue Apr  5 13:48:08 2016 by SUMO Version dev-SVN-r20343
<?xml version="1.0" encoding="UTF-8"?>

<configuration xmlns:xsi="http://www.w3.org/2001/XMLSchema-instance" xsi:noNamespaceSchemaLocation="http://sumo.dlr.de/xsd/sumoConfiguration.xsd">

    <input>
        <net-file value="net.net.xml"/>
        <route-files value="input_routes.rou.xml"/>
    </input>

    <output>
        <fcd-output value="fcd.xml"/>
    </output>

    <report>
        <xml-validation value="never"/>
        <no-step-log value="true"/>
    </report>

</configuration>
-->

<fcd-export xmlns:xsi="http://www.w3.org/2001/XMLSchema-instance" xsi:noNamespaceSchemaLocation="http://sumo.dlr.de/xsd/fcd_file.xsd">
    <timestep time="0.00">
        <vehicle id="v0" x="52.31" y="34.06" angle="357.81" type="t0" speed="0.00" pos="17.43" lane="beg2_2" slope="0.00"/>
    </timestep>
    <timestep time="1.00">
        <vehicle id="v0" x="52.26" y="35.36" angle="357.81" type="t0" speed="2.60" pos="18.73" lane="beg2_2" slope="0.00"/>
    </timestep>
    <timestep time="2.00">
        <vehicle id="v0" x="52.11" y="39.26" angle="357.81" type="t0" speed="5.20" pos="22.63" lane="beg2_2" slope="0.00"/>
    </timestep>
    <timestep time="3.00">
        <vehicle id="v0" x="52.20" y="46.62" angle="45.00" type="t0" speed="7.80" pos="1.70" lane=":C_0_2" slope="0.00"/>
    </timestep>
    <timestep time="4.00">
        <vehicle id="v0" x="59.09" y="53.71" angle="11.66" type="t0" speed="6.53" pos="8.86" lane=":C_0_2" slope="0.00"/>
    </timestep>
    <timestep time="5.00">
        <vehicle id="v0" x="64.25" y="54.00" angle="23.55" type="t0" speed="2.03" pos="2.54" lane="end_2" slope="0.00"/>
        <vehicle id="v1" x="18.32" y="51.01" angle="90.14" type="t0" speed="0.00" pos="36.66" lane="beg1_0" slope="0.00"/>
    </timestep>
    <timestep time="6.00">
        <vehicle id="v0" x="64.71" y="53.99" angle="24.78" type="t0" speed="0.00" pos="3.00" lane="end_2" slope="0.00"/>
        <vehicle id="v1" x="19.62" y="51.01" angle="90.14" type="t0" speed="2.60" pos="37.96" lane="beg1_0" slope="0.00"/>
    </timestep>
    <timestep time="7.00">
        <vehicle id="v0" x="64.65" y="50.69" angle="21.02" type="t0" speed="0.00" pos="3.00" lane="end_1" slope="0.00"/>
        <vehicle id="v1" x="23.52" y="51.00" angle="90.14" type="t0" speed="5.20" pos="41.86" lane="beg1_0" slope="0.00"/>
    </timestep>
    <timestep time="8.00">
        <vehicle id="v0" x="65.40" y="50.68" angle="23.39" type="t0" speed="1.50" pos="3.75" lane="end_1" slope="0.00"/>
        <vehicle id="v1" x="30.02" y="50.98" angle="90.14" type="t0" speed="7.80" pos="48.36" lane="beg1_0" slope="0.00"/>
    </timestep>
    <timestep time="9.00">
        <vehicle id="v0" x="65.65" y="50.67" angle="24.20" type="t0" speed="0.00" pos="4.00" lane="end_1" slope="0.00"/>
        <vehicle id="v1" x="38.58" y="50.96" angle="90.14" type="t0" speed="9.32" pos="56.92" lane="beg1_0" slope="0.00"/>
    </timestep>
    <timestep time="10.00">
        <vehicle id="v0" x="66.95" y="50.65" angle="28.54" type="t0" speed="2.60" pos="5.30" lane="end_1" slope="0.00"/>
        <vehicle id="v1" x="45.64" y="50.95" angle="90.14" type="t0" speed="4.82" pos="63.98" lane="beg1_0" slope="0.00"/>
    </timestep>
    <timestep time="11.00">
        <vehicle id="v0" x="70.85" y="50.58" angle="42.54" type="t0" speed="5.20" pos="9.20" lane="end_1" slope="0.00"/>
        <vehicle id="v1" x="48.21" y="50.94" angle="90.14" type="t0" speed="0.32" pos="66.55" lane="beg1_0" slope="0.00"/>
    </timestep>
    <timestep time="12.00">
        <vehicle id="v0" x="77.35" y="50.47" angle="65.55" type="t0" speed="7.80" pos="15.70" lane="end_1" slope="0.00"/>
        <vehicle id="v1" x="48.22" y="50.94" angle="90.14" type="t0" speed="0.00" pos="66.56" lane="beg1_0" slope="0.00"/>
    </timestep>
    <timestep time="13.00">
        <vehicle id="v0" x="86.45" y="50.32" angle="87.84" type="t0" speed="10.40" pos="24.80" lane="end_1" slope="0.00"/>
        <vehicle id="v1" x="48.22" y="50.94" angle="90.14" type="t0" speed="0.00" pos="66.56" lane="beg1_0" slope="0.00"/>
    </timestep>
    <timestep time="14.00">
        <vehicle id="v0" x="98.15" y="50.12" angle="90.97" type="t0" speed="13.00" pos="36.50" lane="end_1" slope="0.00"/>
        <vehicle id="v1" x="48.22" y="50.94" angle="90.14" type="t0" speed="0.00" pos="66.56" lane="beg1_0" slope="0.00"/>
    </timestep>
    <timestep time="15.00">
        <vehicle id="v1" x="48.22" y="50.94" angle="90.14" type="t0" speed="0.00" pos="66.56" lane="beg1_0" slope="0.00"/>
    </timestep>
    <timestep time="16.00">
        <vehicle id="v1" x="49.52" y="50.93" angle="90.14" type="t0" speed="2.60" pos="1.20" lane=":C_3_0" slope="0.00"/>
    </timestep>
    <timestep time="17.00">
        <vehicle id="v1" x="53.41" y="50.90" angle="90.18" type="t0" speed="5.20" pos="5.10" lane=":C_3_0" slope="0.00"/>
    </timestep>
    <timestep time="18.00">
        <vehicle id="v1" x="59.89" y="50.77" angle="90.41" type="t0" speed="7.80" pos="11.60" lane=":C_3_0" slope="0.00"/>
    </timestep>
    <timestep time="19.00">
        <vehicle id="v1" x="68.94" y="47.32" angle="96.95" type="t0" speed="10.40" pos="7.34" lane="end_0" slope="0.00"/>
    </timestep>
    <timestep time="20.00">
        <vehicle id="v1" x="80.63" y="47.12" angle="97.26" type="t0" speed="13.00" pos="19.04" lane="end_0" slope="0.00"/>
    </timestep>
    <timestep time="21.00">
        <vehicle id="v1" x="94.08" y="46.89" angle="90.97" type="t0" speed="13.89" pos="32.48" lane="end_0" slope="0.00"/>
    </timestep>
    <timestep time="22.00">
        <vehicle id="v1" x="107.96" y="46.65" angle="90.97" type="t0" speed="13.89" pos="46.37" lane="end_0" slope="0.00"/>
    </timestep>
    <timestep time="23.00"/>
</fcd-export>
