<?xml version="1.0" encoding="UTF-8"?>

<!-- generated on Mon Sep 12 13:12:30 2016 by SUMO Version dev-SVN-r21424
<?xml version="1.0" encoding="UTF-8"?>

<configuration xmlns:xsi="http://www.w3.org/2001/XMLSchema-instance" xsi:noNamespaceSchemaLocation="http://sumo.dlr.de/xsd/sumoConfiguration.xsd">

    <input>
        <net-file value="net.net.xml"/>
        <route-files value="input_routes.rou.xml"/>
    </input>

    <output>
        <fcd-output value="fcd.xml"/>
        <tripinfo-output value="tripinfos.xml"/>
    </output>

    <time>
        <step-length value="0.2"/>
    </time>

    <processing>
        <step-method.ballistic value="true"/>
    </processing>

    <report>
        <xml-validation value="never"/>
        <no-step-log value="true"/>
    </report>

</configuration>
-->

<fcd-export xmlns:xsi="http://www.w3.org/2001/XMLSchema-instance" xsi:noNamespaceSchemaLocation="http://sumo.dlr.de/xsd/fcd_file.xsd">
    <timestep time="0.00">
        <vehicle id="overtaking" x="0.00" y="-1.65" angle="90.00" type="DEFAULT_VEHTYPE" speed="0.00" pos="0.00" lane="VODUGES_beg_0" slope="0.00"/>
        <vehicle id="stopped" x="40.00" y="-1.65" angle="90.00" type="DEFAULT_VEHTYPE" speed="0.00" pos="40.00" lane="VODUGES_beg_0" slope="0.00"/>
    </timestep>
    <timestep time="0.20">
        <vehicle id="overtaking" x="0.05" y="-1.65" angle="90.00" type="DEFAULT_VEHTYPE" speed="0.48" pos="0.05" lane="VODUGES_beg_0" slope="0.00"/>
        <vehicle id="stopped" x="40.05" y="-1.65" angle="90.00" type="DEFAULT_VEHTYPE" speed="0.47" pos="40.05" lane="VODUGES_beg_0" slope="0.00"/>
    </timestep>
    <timestep time="0.40">
        <vehicle id="overtaking" x="0.19" y="-1.65" angle="90.00" type="DEFAULT_VEHTYPE" speed="0.95" pos="0.19" lane="VODUGES_beg_0" slope="0.00"/>
        <vehicle id="stopped" x="40.19" y="-1.65" angle="90.00" type="DEFAULT_VEHTYPE" speed="0.99" pos="40.19" lane="VODUGES_beg_0" slope="0.00"/>
    </timestep>
    <timestep time="0.60">
        <vehicle id="overtaking" x="0.43" y="-1.65" angle="90.00" type="DEFAULT_VEHTYPE" speed="1.47" pos="0.43" lane="VODUGES_beg_0" slope="0.00"/>
        <vehicle id="stopped" x="40.43" y="-1.65" angle="90.00" type="DEFAULT_VEHTYPE" speed="1.42" pos="40.43" lane="VODUGES_beg_0" slope="0.00"/>
    </timestep>
    <timestep time="0.80">
        <vehicle id="overtaking" x="0.77" y="-1.65" angle="90.00" type="DEFAULT_VEHTYPE" speed="1.94" pos="0.77" lane="VODUGES_beg_0" slope="0.00"/>
        <vehicle id="stopped" x="40.76" y="-1.65" angle="90.00" type="DEFAULT_VEHTYPE" speed="1.80" pos="40.76" lane="VODUGES_beg_0" slope="0.00"/>
    </timestep>
    <timestep time="1.00">
        <vehicle id="overtaking" x="1.20" y="-1.65" angle="90.00" type="DEFAULT_VEHTYPE" speed="2.27" pos="1.20" lane="VODUGES_beg_0" slope="0.00"/>
        <vehicle id="stopped" x="41.15" y="-1.65" angle="90.00" type="DEFAULT_VEHTYPE" speed="2.19" pos="41.15" lane="VODUGES_beg_0" slope="0.00"/>
    </timestep>
    <timestep time="1.20">
        <vehicle id="overtaking" x="1.69" y="-1.65" angle="90.00" type="DEFAULT_VEHTYPE" speed="2.62" pos="1.69" lane="VODUGES_beg_0" slope="0.00"/>
        <vehicle id="stopped" x="41.64" y="-1.65" angle="90.00" type="DEFAULT_VEHTYPE" speed="2.71" pos="41.64" lane="VODUGES_beg_0" slope="0.00"/>
    </timestep>
    <timestep time="1.40">
        <vehicle id="overtaking" x="2.25" y="-1.65" angle="90.00" type="DEFAULT_VEHTYPE" speed="3.02" pos="2.25" lane="VODUGES_beg_0" slope="0.00"/>
        <vehicle id="stopped" x="42.23" y="-1.65" angle="90.00" type="DEFAULT_VEHTYPE" speed="3.11" pos="42.23" lane="VODUGES_beg_0" slope="0.00"/>
    </timestep>
    <timestep time="1.60">
        <vehicle id="overtaking" x="2.90" y="-1.65" angle="90.00" type="DEFAULT_VEHTYPE" speed="3.47" pos="2.90" lane="VODUGES_beg_0" slope="0.00"/>
        <vehicle id="stopped" x="42.88" y="-1.65" angle="90.00" type="DEFAULT_VEHTYPE" speed="3.48" pos="42.88" lane="VODUGES_beg_0" slope="0.00"/>
    </timestep>
    <timestep time="1.80">
        <vehicle id="overtaking" x="3.62" y="-1.65" angle="90.00" type="DEFAULT_VEHTYPE" speed="3.77" pos="3.62" lane="VODUGES_beg_0" slope="0.00"/>
        <vehicle id="stopped" x="43.63" y="-1.65" angle="90.00" type="DEFAULT_VEHTYPE" speed="3.98" pos="43.63" lane="VODUGES_beg_0" slope="0.00"/>
    </timestep>
    <timestep time="2.00">
        <vehicle id="overtaking" x="4.41" y="-1.65" angle="90.00" type="DEFAULT_VEHTYPE" speed="4.11" pos="4.41" lane="VODUGES_beg_0" slope="0.00"/>
        <vehicle id="stopped" x="44.47" y="-1.65" angle="90.00" type="DEFAULT_VEHTYPE" speed="4.42" pos="44.47" lane="VODUGES_beg_0" slope="0.00"/>
    </timestep>
    <timestep time="2.20">
        <vehicle id="overtaking" x="5.27" y="-1.65" angle="90.00" type="DEFAULT_VEHTYPE" speed="4.49" pos="5.27" lane="VODUGES_beg_0" slope="0.00"/>
        <vehicle id="stopped" x="45.41" y="-1.65" angle="90.00" type="DEFAULT_VEHTYPE" speed="4.93" pos="45.41" lane="VODUGES_beg_0" slope="0.00"/>
    </timestep>
    <timestep time="2.40">
        <vehicle id="overtaking" x="6.21" y="-1.65" angle="90.00" type="DEFAULT_VEHTYPE" speed="4.85" pos="6.21" lane="VODUGES_beg_0" slope="0.00"/>
        <vehicle id="stopped" x="46.44" y="-1.65" angle="90.00" type="DEFAULT_VEHTYPE" speed="5.37" pos="46.44" lane="VODUGES_beg_0" slope="0.00"/>
    </timestep>
    <timestep time="2.60">
        <vehicle id="overtaking" x="7.21" y="-1.65" angle="90.00" type="DEFAULT_VEHTYPE" speed="5.16" pos="7.21" lane="VODUGES_beg_0" slope="0.00"/>
        <vehicle id="stopped" x="47.43" y="-1.65" angle="90.00" type="DEFAULT_VEHTYPE" speed="4.54" pos="47.43" lane="VODUGES_beg_0" slope="0.00"/>
    </timestep>
    <timestep time="2.80">
        <vehicle id="overtaking" x="8.28" y="-1.65" angle="90.00" type="DEFAULT_VEHTYPE" speed="5.57" pos="8.28" lane="VODUGES_beg_0" slope="0.00"/>
        <vehicle id="stopped" x="48.25" y="-1.65" angle="90.00" type="DEFAULT_VEHTYPE" speed="3.71" pos="48.25" lane="VODUGES_beg_0" slope="0.00"/>
    </timestep>
    <timestep time="3.00">
        <vehicle id="overtaking" x="9.44" y="-1.65" angle="90.00" type="DEFAULT_VEHTYPE" speed="6.03" pos="9.44" lane="VODUGES_beg_0" slope="0.00"/>
        <vehicle id="stopped" x="48.92" y="-1.65" angle="90.00" type="DEFAULT_VEHTYPE" speed="2.96" pos="48.92" lane="VODUGES_beg_0" slope="0.00"/>
    </timestep>
    <timestep time="3.20">
        <vehicle id="overtaking" x="10.69" y="-1.65" angle="90.00" type="DEFAULT_VEHTYPE" speed="6.47" pos="10.69" lane="VODUGES_beg_0" slope="0.00"/>
        <vehicle id="stopped" x="49.44" y="-1.65" angle="90.00" type="DEFAULT_VEHTYPE" speed="2.24" pos="49.44" lane="VODUGES_beg_0" slope="0.00"/>
    </timestep>
    <timestep time="3.40">
        <vehicle id="overtaking" x="12.03" y="-1.65" angle="90.00" type="DEFAULT_VEHTYPE" speed="6.95" pos="12.03" lane="VODUGES_beg_0" slope="0.00"/>
        <vehicle id="stopped" x="49.80" y="-1.65" angle="90.00" type="DEFAULT_VEHTYPE" speed="1.34" pos="49.80" lane="VODUGES_beg_0" slope="0.00"/>
    </timestep>
    <timestep time="3.60">
        <vehicle id="overtaking" x="13.47" y="-1.65" angle="90.00" type="DEFAULT_VEHTYPE" speed="7.46" pos="13.47" lane="VODUGES_beg_0" slope="0.00"/>
        <vehicle id="stopped" x="49.97" y="-1.65" angle="90.00" type="DEFAULT_VEHTYPE" speed="0.44" pos="49.97" lane="VODUGES_beg_0" slope="0.00"/>
    </timestep>
    <timestep time="3.80">
        <vehicle id="overtaking" x="15.00" y="-1.65" angle="90.00" type="DEFAULT_VEHTYPE" speed="7.81" pos="15.00" lane="VODUGES_beg_0" slope="0.00"/>
        <vehicle id="stopped" x="49.99" y="-1.65" angle="90.00" type="DEFAULT_VEHTYPE" speed="0.00" pos="49.99" lane="VODUGES_beg_0" slope="0.00"/>
    </timestep>
    <timestep time="4.00">
        <vehicle id="overtaking" x="16.61" y="-1.65" angle="90.00" type="DEFAULT_VEHTYPE" speed="8.29" pos="16.61" lane="VODUGES_beg_0" slope="0.00"/>
        <vehicle id="stopped" x="50.00" y="-1.65" angle="90.00" type="DEFAULT_VEHTYPE" speed="0.04" pos="50.00" lane="VODUGES_beg_0" slope="0.00"/>
    </timestep>
    <timestep time="4.20">
        <vehicle id="overtaking" x="18.32" y="-1.65" angle="90.00" type="DEFAULT_VEHTYPE" speed="8.78" pos="18.32" lane="VODUGES_beg_0" slope="0.00"/>
        <vehicle id="stopped" x="50.00" y="-1.65" angle="90.00" type="DEFAULT_VEHTYPE" speed="0.00" pos="50.00" lane="VODUGES_beg_0" slope="0.00"/>
    </timestep>
    <timestep time="4.40">
        <vehicle id="overtaking" x="20.10" y="-1.65" angle="90.00" type="DEFAULT_VEHTYPE" speed="9.05" pos="20.10" lane="VODUGES_beg_0" slope="0.00"/>
        <vehicle id="stopped" x="50.00" y="-1.65" angle="90.00" type="DEFAULT_VEHTYPE" speed="0.00" pos="50.00" lane="VODUGES_beg_0" slope="0.00"/>
    </timestep>
    <timestep time="4.60">
        <vehicle id="overtaking" x="21.95" y="-1.65" angle="90.00" type="DEFAULT_VEHTYPE" speed="9.50" pos="21.95" lane="VODUGES_beg_0" slope="0.00"/>
        <vehicle id="stopped" x="50.00" y="-1.65" angle="90.00" type="DEFAULT_VEHTYPE" speed="0.00" pos="50.00" lane="VODUGES_beg_0" slope="0.00"/>
    </timestep>
    <timestep time="4.80">
        <vehicle id="overtaking" x="23.90" y="-1.65" angle="90.00" type="DEFAULT_VEHTYPE" speed="9.98" pos="23.90" lane="VODUGES_beg_0" slope="0.00"/>
        <vehicle id="stopped" x="50.00" y="-1.65" angle="90.00" type="DEFAULT_VEHTYPE" speed="0.00" pos="50.00" lane="VODUGES_beg_0" slope="0.00"/>
    </timestep>
    <timestep time="5.00">
        <vehicle id="overtaking" x="25.94" y="-1.65" angle="90.00" type="DEFAULT_VEHTYPE" speed="10.43" pos="25.94" lane="VODUGES_beg_0" slope="0.00"/>
        <vehicle id="stopped" x="50.00" y="-1.65" angle="90.00" type="DEFAULT_VEHTYPE" speed="0.00" pos="50.00" lane="VODUGES_beg_0" slope="0.00"/>
    </timestep>
    <timestep time="5.20">
        <vehicle id="overtaking" x="28.08" y="-1.65" angle="90.00" type="DEFAULT_VEHTYPE" speed="10.93" pos="28.08" lane="VODUGES_beg_0" slope="0.00"/>
        <vehicle id="stopped" x="50.00" y="-1.65" angle="90.00" type="DEFAULT_VEHTYPE" speed="0.00" pos="50.00" lane="VODUGES_beg_0" slope="0.00"/>
    </timestep>
    <timestep time="5.40">
        <vehicle id="overtaking" x="30.21" y="-1.65" angle="90.00" type="DEFAULT_VEHTYPE" speed="10.32" pos="30.21" lane="VODUGES_beg_0" slope="0.00"/>
        <vehicle id="stopped" x="50.00" y="-1.65" angle="90.00" type="DEFAULT_VEHTYPE" speed="0.00" pos="50.00" lane="VODUGES_beg_0" slope="0.00"/>
    </timestep>
    <timestep time="5.60">
        <vehicle id="overtaking" x="32.18" y="-1.65" angle="90.00" type="DEFAULT_VEHTYPE" speed="9.45" pos="32.18" lane="VODUGES_beg_0" slope="0.00"/>
        <vehicle id="stopped" x="50.00" y="-1.65" angle="90.00" type="DEFAULT_VEHTYPE" speed="0.00" pos="50.00" lane="VODUGES_beg_0" slope="0.00"/>
    </timestep>
    <timestep time="5.80">
        <vehicle id="overtaking" x="33.98" y="-1.65" angle="90.00" type="DEFAULT_VEHTYPE" speed="8.55" pos="33.98" lane="VODUGES_beg_0" slope="0.00"/>
        <vehicle id="stopped" x="50.00" y="-1.65" angle="90.00" type="DEFAULT_VEHTYPE" speed="0.00" pos="50.00" lane="VODUGES_beg_0" slope="0.00"/>
    </timestep>
    <timestep time="6.00">
        <vehicle id="overtaking" x="35.61" y="-1.65" angle="90.00" type="DEFAULT_VEHTYPE" speed="7.74" pos="35.61" lane="VODUGES_beg_0" slope="0.00"/>
        <vehicle id="stopped" x="50.00" y="-1.65" angle="90.00" type="DEFAULT_VEHTYPE" speed="0.00" pos="50.00" lane="VODUGES_beg_0" slope="0.00"/>
    </timestep>
    <timestep time="6.20">
        <vehicle id="overtaking" x="37.08" y="-1.65" angle="90.00" type="DEFAULT_VEHTYPE" speed="6.94" pos="37.08" lane="VODUGES_beg_0" slope="0.00"/>
        <vehicle id="stopped" x="50.00" y="-1.65" angle="90.00" type="DEFAULT_VEHTYPE" speed="0.00" pos="50.00" lane="VODUGES_beg_0" slope="0.00"/>
    </timestep>
    <timestep time="6.40">
        <vehicle id="overtaking" x="38.38" y="1.65" angle="90.00" type="DEFAULT_VEHTYPE" speed="6.04" pos="161.62" lane="-VODUGES_beg_0" slope="0.00"/>
        <vehicle id="stopped" x="50.00" y="-1.65" angle="90.00" type="DEFAULT_VEHTYPE" speed="0.00" pos="50.00" lane="VODUGES_beg_0" slope="0.00"/>
    </timestep>
    <timestep time="6.60">
        <vehicle id="overtaking" x="39.62" y="1.65" angle="90.00" type="DEFAULT_VEHTYPE" speed="6.39" pos="160.38" lane="-VODUGES_beg_0" slope="0.00"/>
        <vehicle id="stopped" x="50.00" y="-1.65" angle="90.00" type="DEFAULT_VEHTYPE" speed="0.00" pos="50.00" lane="VODUGES_beg_0" slope="0.00"/>
    </timestep>
    <timestep time="6.80">
        <vehicle id="overtaking" x="40.95" y="1.65" angle="90.00" type="DEFAULT_VEHTYPE" speed="6.91" pos="159.05" lane="-VODUGES_beg_0" slope="0.00"/>
        <vehicle id="stopped" x="50.00" y="-1.65" angle="90.00" type="DEFAULT_VEHTYPE" speed="0.00" pos="50.00" lane="VODUGES_beg_0" slope="0.00"/>
    </timestep>
    <timestep time="7.00">
        <vehicle id="overtaking" x="42.37" y="1.65" angle="90.00" type="DEFAULT_VEHTYPE" speed="7.28" pos="157.63" lane="-VODUGES_beg_0" slope="0.00"/>
        <vehicle id="stopped" x="50.00" y="-1.65" angle="90.00" type="DEFAULT_VEHTYPE" speed="0.00" pos="50.00" lane="VODUGES_beg_0" slope="0.00"/>
    </timestep>
    <timestep time="7.20">
        <vehicle id="overtaking" x="43.87" y="1.65" angle="90.00" type="DEFAULT_VEHTYPE" speed="7.79" pos="156.13" lane="-VODUGES_beg_0" slope="0.00"/>
        <vehicle id="stopped" x="50.00" y="-1.65" angle="90.00" type="DEFAULT_VEHTYPE" speed="0.00" pos="50.00" lane="VODUGES_beg_0" slope="0.00"/>
    </timestep>
    <timestep time="7.40">
        <vehicle id="overtaking" x="45.46" y="1.65" angle="90.00" type="DEFAULT_VEHTYPE" speed="8.05" pos="154.54" lane="-VODUGES_beg_0" slope="0.00"/>
        <vehicle id="stopped" x="50.00" y="-1.65" angle="90.00" type="DEFAULT_VEHTYPE" speed="0.00" pos="50.00" lane="VODUGES_beg_0" slope="0.00"/>
    </timestep>
    <timestep time="7.60">
        <vehicle id="overtaking" x="47.11" y="1.65" angle="90.00" type="DEFAULT_VEHTYPE" speed="8.48" pos="152.89" lane="-VODUGES_beg_0" slope="0.00"/>
        <vehicle id="stopped" x="50.00" y="-1.65" angle="90.00" type="DEFAULT_VEHTYPE" speed="0.00" pos="50.00" lane="VODUGES_beg_0" slope="0.00"/>
    </timestep>
    <timestep time="7.80">
        <vehicle id="overtaking" x="48.84" y="1.65" angle="90.00" type="DEFAULT_VEHTYPE" speed="8.85" pos="151.16" lane="-VODUGES_beg_0" slope="0.00"/>
        <vehicle id="stopped" x="50.00" y="-1.65" angle="90.00" type="DEFAULT_VEHTYPE" speed="0.00" pos="50.00" lane="VODUGES_beg_0" slope="0.00"/>
    </timestep>
    <timestep time="8.00">
        <vehicle id="overtaking" x="50.66" y="1.65" angle="90.00" type="DEFAULT_VEHTYPE" speed="9.33" pos="149.34" lane="-VODUGES_beg_0" slope="0.00"/>
        <vehicle id="stopped" x="50.00" y="-1.65" angle="90.00" type="DEFAULT_VEHTYPE" speed="0.00" pos="50.00" lane="VODUGES_beg_0" slope="0.00"/>
    </timestep>
    <timestep time="8.20">
        <vehicle id="overtaking" x="52.58" y="1.65" angle="90.00" type="DEFAULT_VEHTYPE" speed="9.82" pos="147.42" lane="-VODUGES_beg_0" slope="0.00"/>
        <vehicle id="stopped" x="50.00" y="-1.65" angle="90.00" type="DEFAULT_VEHTYPE" speed="0.00" pos="50.00" lane="VODUGES_beg_0" slope="0.00"/>
    </timestep>
    <timestep time="8.40">
        <vehicle id="overtaking" x="54.59" y="1.65" angle="90.00" type="DEFAULT_VEHTYPE" speed="10.25" pos="145.41" lane="-VODUGES_beg_0" slope="0.00"/>
        <vehicle id="stopped" x="50.00" y="-1.65" angle="90.00" type="DEFAULT_VEHTYPE" speed="0.00" pos="50.00" lane="VODUGES_beg_0" slope="0.00"/>
    </timestep>
    <timestep time="8.60">
        <vehicle id="overtaking" x="56.68" y="1.65" angle="90.00" type="DEFAULT_VEHTYPE" speed="10.72" pos="143.32" lane="-VODUGES_beg_0" slope="0.00"/>
        <vehicle id="stopped" x="50.00" y="-1.65" angle="90.00" type="DEFAULT_VEHTYPE" speed="0.00" pos="50.00" lane="VODUGES_beg_0" slope="0.00"/>
    </timestep>
    <timestep time="8.80">
        <vehicle id="overtaking" x="58.87" y="-1.65" angle="90.00" type="DEFAULT_VEHTYPE" speed="11.13" pos="58.87" lane="VODUGES_beg_0" slope="0.00"/>
        <vehicle id="stopped" x="50.00" y="-1.65" angle="90.00" type="DEFAULT_VEHTYPE" speed="0.00" pos="50.00" lane="VODUGES_beg_0" slope="0.00"/>
    </timestep>
    <timestep time="9.00">
        <vehicle id="overtaking" x="61.13" y="-1.65" angle="90.00" type="DEFAULT_VEHTYPE" speed="11.55" pos="61.13" lane="VODUGES_beg_0" slope="0.00"/>
        <vehicle id="stopped" x="50.00" y="-1.65" angle="90.00" type="DEFAULT_VEHTYPE" speed="0.00" pos="50.00" lane="VODUGES_beg_0" slope="0.00"/>
    </timestep>
    <timestep time="9.20">
        <vehicle id="overtaking" x="63.47" y="-1.65" angle="90.00" type="DEFAULT_VEHTYPE" speed="11.85" pos="63.47" lane="VODUGES_beg_0" slope="0.00"/>
        <vehicle id="stopped" x="50.00" y="-1.65" angle="90.00" type="DEFAULT_VEHTYPE" speed="0.00" pos="50.00" lane="VODUGES_beg_0" slope="0.00"/>
    </timestep>
    <timestep time="9.40">
        <vehicle id="overtaking" x="65.89" y="-1.65" angle="90.00" type="DEFAULT_VEHTYPE" speed="12.26" pos="65.89" lane="VODUGES_beg_0" slope="0.00"/>
        <vehicle id="stopped" x="50.00" y="-1.65" angle="90.00" type="DEFAULT_VEHTYPE" speed="0.00" pos="50.00" lane="VODUGES_beg_0" slope="0.00"/>
    </timestep>
    <timestep time="9.60">
        <vehicle id="overtaking" x="68.37" y="-1.65" angle="90.00" type="DEFAULT_VEHTYPE" speed="12.53" pos="68.37" lane="VODUGES_beg_0" slope="0.00"/>
        <vehicle id="stopped" x="50.00" y="-1.65" angle="90.00" type="DEFAULT_VEHTYPE" speed="0.00" pos="50.00" lane="VODUGES_beg_0" slope="0.00"/>
    </timestep>
    <timestep time="9.80">
        <vehicle id="overtaking" x="70.92" y="-1.65" angle="90.00" type="DEFAULT_VEHTYPE" speed="12.97" pos="70.92" lane="VODUGES_beg_0" slope="0.00"/>
        <vehicle id="stopped" x="50.00" y="-1.65" angle="90.00" type="DEFAULT_VEHTYPE" speed="0.00" pos="50.00" lane="VODUGES_beg_0" slope="0.00"/>
    </timestep>
    <timestep time="10.00">
        <vehicle id="overtaking" x="73.54" y="-1.65" angle="90.00" type="DEFAULT_VEHTYPE" speed="13.26" pos="73.54" lane="VODUGES_beg_0" slope="0.00"/>
        <vehicle id="stopped" x="50.00" y="-1.65" angle="90.00" type="DEFAULT_VEHTYPE" speed="0.00" pos="50.00" lane="VODUGES_beg_0" slope="0.00"/>
    </timestep>
    <timestep time="10.20">
        <vehicle id="overtaking" x="76.22" y="-1.65" angle="90.00" type="DEFAULT_VEHTYPE" speed="13.54" pos="76.22" lane="VODUGES_beg_0" slope="0.00"/>
        <vehicle id="stopped" x="50.00" y="-1.65" angle="90.00" type="DEFAULT_VEHTYPE" speed="0.00" pos="50.00" lane="VODUGES_beg_0" slope="0.00"/>
    </timestep>
    <timestep time="10.40">
        <vehicle id="overtaking" x="78.95" y="-1.65" angle="90.00" type="DEFAULT_VEHTYPE" speed="13.78" pos="78.95" lane="VODUGES_beg_0" slope="0.00"/>
        <vehicle id="stopped" x="50.00" y="-1.65" angle="90.00" type="DEFAULT_VEHTYPE" speed="0.00" pos="50.00" lane="VODUGES_beg_0" slope="0.00"/>
    </timestep>
    <timestep time="10.60">
        <vehicle id="overtaking" x="81.71" y="-1.65" angle="90.00" type="DEFAULT_VEHTYPE" speed="13.77" pos="81.71" lane="VODUGES_beg_0" slope="0.00"/>
        <vehicle id="stopped" x="50.00" y="-1.65" angle="90.00" type="DEFAULT_VEHTYPE" speed="0.00" pos="50.00" lane="VODUGES_beg_0" slope="0.00"/>
    </timestep>
    <timestep time="10.80">
        <vehicle id="overtaking" x="84.46" y="-1.65" angle="90.00" type="DEFAULT_VEHTYPE" speed="13.74" pos="84.46" lane="VODUGES_beg_0" slope="0.00"/>
        <vehicle id="stopped" x="50.00" y="-1.65" angle="90.00" type="DEFAULT_VEHTYPE" speed="0.00" pos="50.00" lane="VODUGES_beg_0" slope="0.00"/>
    </timestep>
    <timestep time="11.00">
        <vehicle id="overtaking" x="87.21" y="-1.65" angle="90.00" type="DEFAULT_VEHTYPE" speed="13.81" pos="87.21" lane="VODUGES_beg_0" slope="0.00"/>
        <vehicle id="stopped" x="50.00" y="-1.65" angle="90.00" type="DEFAULT_VEHTYPE" speed="0.00" pos="50.00" lane="VODUGES_beg_0" slope="0.00"/>
    </timestep>
    <timestep time="11.20">
        <vehicle id="overtaking" x="89.97" y="-1.65" angle="90.00" type="DEFAULT_VEHTYPE" speed="13.80" pos="89.97" lane="VODUGES_beg_0" slope="0.00"/>
        <vehicle id="stopped" x="50.00" y="-1.65" angle="90.00" type="DEFAULT_VEHTYPE" speed="0.00" pos="50.00" lane="VODUGES_beg_0" slope="0.00"/>
    </timestep>
    <timestep time="11.40">
        <vehicle id="overtaking" x="92.74" y="-1.65" angle="90.00" type="DEFAULT_VEHTYPE" speed="13.86" pos="92.74" lane="VODUGES_beg_0" slope="0.00"/>
        <vehicle id="stopped" x="50.00" y="-1.65" angle="90.00" type="DEFAULT_VEHTYPE" speed="0.00" pos="50.00" lane="VODUGES_beg_0" slope="0.00"/>
    </timestep>
    <timestep time="11.60">
        <vehicle id="overtaking" x="95.50" y="-1.65" angle="90.00" type="DEFAULT_VEHTYPE" speed="13.72" pos="95.50" lane="VODUGES_beg_0" slope="0.00"/>
        <vehicle id="stopped" x="50.00" y="-1.65" angle="90.00" type="DEFAULT_VEHTYPE" speed="0.00" pos="50.00" lane="VODUGES_beg_0" slope="0.00"/>
    </timestep>
    <timestep time="11.80">
        <vehicle id="overtaking" x="98.25" y="-1.65" angle="90.00" type="DEFAULT_VEHTYPE" speed="13.82" pos="98.25" lane="VODUGES_beg_0" slope="0.00"/>
        <vehicle id="stopped" x="50.00" y="-1.65" angle="90.00" type="DEFAULT_VEHTYPE" speed="0.00" pos="50.00" lane="VODUGES_beg_0" slope="0.00"/>
    </timestep>
    <timestep time="12.00">
        <vehicle id="overtaking" x="101.02" y="-1.65" angle="90.00" type="DEFAULT_VEHTYPE" speed="13.86" pos="101.02" lane="VODUGES_beg_0" slope="0.00"/>
        <vehicle id="stopped" x="50.00" y="-1.65" angle="90.00" type="DEFAULT_VEHTYPE" speed="0.00" pos="50.00" lane="VODUGES_beg_0" slope="0.00"/>
    </timestep>
    <timestep time="12.20">
        <vehicle id="overtaking" x="103.79" y="-1.65" angle="90.00" type="DEFAULT_VEHTYPE" speed="13.85" pos="103.79" lane="VODUGES_beg_0" slope="0.00"/>
        <vehicle id="stopped" x="50.00" y="-1.65" angle="90.00" type="DEFAULT_VEHTYPE" speed="0.00" pos="50.00" lane="VODUGES_beg_0" slope="0.00"/>
    </timestep>
    <timestep time="12.40">
        <vehicle id="overtaking" x="106.56" y="-1.65" angle="90.00" type="DEFAULT_VEHTYPE" speed="13.79" pos="106.56" lane="VODUGES_beg_0" slope="0.00"/>
        <vehicle id="stopped" x="50.00" y="-1.65" angle="90.00" type="DEFAULT_VEHTYPE" speed="0.00" pos="50.00" lane="VODUGES_beg_0" slope="0.00"/>
    </timestep>
    <timestep time="12.60">
        <vehicle id="overtaking" x="109.32" y="-1.65" angle="90.00" type="DEFAULT_VEHTYPE" speed="13.88" pos="109.32" lane="VODUGES_beg_0" slope="0.00"/>
        <vehicle id="stopped" x="50.00" y="-1.65" angle="90.00" type="DEFAULT_VEHTYPE" speed="0.00" pos="50.00" lane="VODUGES_beg_0" slope="0.00"/>
    </timestep>
    <timestep time="12.80">
        <vehicle id="overtaking" x="112.08" y="-1.65" angle="90.00" type="DEFAULT_VEHTYPE" speed="13.71" pos="112.08" lane="VODUGES_beg_0" slope="0.00"/>
        <vehicle id="stopped" x="50.00" y="-1.65" angle="90.00" type="DEFAULT_VEHTYPE" speed="0.00" pos="50.00" lane="VODUGES_beg_0" slope="0.00"/>
    </timestep>
    <timestep time="13.00">
        <vehicle id="overtaking" x="114.82" y="-1.65" angle="90.00" type="DEFAULT_VEHTYPE" speed="13.67" pos="114.82" lane="VODUGES_beg_0" slope="0.00"/>
        <vehicle id="stopped" x="50.00" y="-1.65" angle="90.00" type="DEFAULT_VEHTYPE" speed="0.00" pos="50.00" lane="VODUGES_beg_0" slope="0.00"/>
    </timestep>
    <timestep time="13.20">
        <vehicle id="overtaking" x="117.55" y="-1.65" angle="90.00" type="DEFAULT_VEHTYPE" speed="13.65" pos="117.55" lane="VODUGES_beg_0" slope="0.00"/>
        <vehicle id="stopped" x="50.00" y="-1.65" angle="90.00" type="DEFAULT_VEHTYPE" speed="0.00" pos="50.00" lane="VODUGES_beg_0" slope="0.00"/>
    </timestep>
    <timestep time="13.40">
        <vehicle id="overtaking" x="120.29" y="-1.65" angle="90.00" type="DEFAULT_VEHTYPE" speed="13.72" pos="120.29" lane="VODUGES_beg_0" slope="0.00"/>
        <vehicle id="stopped" x="50.00" y="-1.65" angle="90.00" type="DEFAULT_VEHTYPE" speed="0.00" pos="50.00" lane="VODUGES_beg_0" slope="0.00"/>
    </timestep>
    <timestep time="13.60">
        <vehicle id="overtaking" x="123.04" y="-1.65" angle="90.00" type="DEFAULT_VEHTYPE" speed="13.74" pos="123.04" lane="VODUGES_beg_0" slope="0.00"/>
        <vehicle id="stopped" x="50.00" y="-1.65" angle="90.00" type="DEFAULT_VEHTYPE" speed="0.00" pos="50.00" lane="VODUGES_beg_0" slope="0.00"/>
    </timestep>
    <timestep time="13.80">
        <vehicle id="overtaking" x="125.79" y="-1.65" angle="90.00" type="DEFAULT_VEHTYPE" speed="13.79" pos="125.79" lane="VODUGES_beg_0" slope="0.00"/>
        <vehicle id="stopped" x="50.00" y="-1.65" angle="90.00" type="DEFAULT_VEHTYPE" speed="0.00" pos="50.00" lane="VODUGES_beg_0" slope="0.00"/>
    </timestep>
    <timestep time="14.00">
        <vehicle id="overtaking" x="128.54" y="-1.65" angle="90.00" type="DEFAULT_VEHTYPE" speed="13.74" pos="128.54" lane="VODUGES_beg_0" slope="0.00"/>
        <vehicle id="stopped" x="50.00" y="-1.65" angle="90.00" type="DEFAULT_VEHTYPE" speed="0.00" pos="50.00" lane="VODUGES_beg_0" slope="0.00"/>
    </timestep>
    <timestep time="14.20">
        <vehicle id="overtaking" x="131.30" y="-1.65" angle="90.00" type="DEFAULT_VEHTYPE" speed="13.86" pos="131.30" lane="VODUGES_beg_0" slope="0.00"/>
        <vehicle id="stopped" x="50.00" y="-1.65" angle="90.00" type="DEFAULT_VEHTYPE" speed="0.00" pos="50.00" lane="VODUGES_beg_0" slope="0.00"/>
    </timestep>
    <timestep time="14.40">
        <vehicle id="overtaking" x="134.06" y="-1.65" angle="90.00" type="DEFAULT_VEHTYPE" speed="13.72" pos="134.06" lane="VODUGES_beg_0" slope="0.00"/>
        <vehicle id="stopped" x="50.00" y="-1.65" angle="90.00" type="DEFAULT_VEHTYPE" speed="0.00" pos="50.00" lane="VODUGES_beg_0" slope="0.00"/>
    </timestep>
    <timestep time="14.60">
        <vehicle id="overtaking" x="136.80" y="-1.65" angle="90.00" type="DEFAULT_VEHTYPE" speed="13.64" pos="136.80" lane="VODUGES_beg_0" slope="0.00"/>
        <vehicle id="stopped" x="50.00" y="-1.65" angle="90.00" type="DEFAULT_VEHTYPE" speed="0.00" pos="50.00" lane="VODUGES_beg_0" slope="0.00"/>
    </timestep>
    <timestep time="14.80">
        <vehicle id="overtaking" x="139.55" y="-1.65" angle="90.00" type="DEFAULT_VEHTYPE" speed="13.89" pos="139.55" lane="VODUGES_beg_0" slope="0.00"/>
        <vehicle id="stopped" x="50.00" y="-1.65" angle="90.00" type="DEFAULT_VEHTYPE" speed="0.00" pos="50.00" lane="VODUGES_beg_0" slope="0.00"/>
    </timestep>
    <timestep time="15.00">
        <vehicle id="overtaking" x="142.30" y="-1.65" angle="90.00" type="DEFAULT_VEHTYPE" speed="13.66" pos="142.30" lane="VODUGES_beg_0" slope="0.00"/>
        <vehicle id="stopped" x="50.00" y="-1.65" angle="90.00" type="DEFAULT_VEHTYPE" speed="0.00" pos="50.00" lane="VODUGES_beg_0" slope="0.00"/>
    </timestep>
    <timestep time="15.20">
        <vehicle id="overtaking" x="145.04" y="-1.65" angle="90.00" type="DEFAULT_VEHTYPE" speed="13.66" pos="145.04" lane="VODUGES_beg_0" slope="0.00"/>
        <vehicle id="stopped" x="50.00" y="-1.65" angle="90.00" type="DEFAULT_VEHTYPE" speed="0.00" pos="50.00" lane="VODUGES_beg_0" slope="0.00"/>
    </timestep>
    <timestep time="15.40">
        <vehicle id="overtaking" x="147.78" y="-1.65" angle="90.00" type="DEFAULT_VEHTYPE" speed="13.80" pos="147.78" lane="VODUGES_beg_0" slope="0.00"/>
        <vehicle id="stopped" x="50.00" y="-1.65" angle="90.00" type="DEFAULT_VEHTYPE" speed="0.00" pos="50.00" lane="VODUGES_beg_0" slope="0.00"/>
    </timestep>
    <timestep time="15.60">
        <vehicle id="overtaking" x="150.54" y="-1.65" angle="90.00" type="DEFAULT_VEHTYPE" speed="13.77" pos="150.54" lane="VODUGES_beg_0" slope="0.00"/>
        <vehicle id="stopped" x="50.00" y="-1.65" angle="90.00" type="DEFAULT_VEHTYPE" speed="0.00" pos="50.00" lane="VODUGES_beg_0" slope="0.00"/>
    </timestep>
    <timestep time="15.80">
        <vehicle id="overtaking" x="153.30" y="-1.65" angle="90.00" type="DEFAULT_VEHTYPE" speed="13.89" pos="153.30" lane="VODUGES_beg_0" slope="0.00"/>
        <vehicle id="stopped" x="50.00" y="-1.65" angle="90.00" type="DEFAULT_VEHTYPE" speed="0.00" pos="50.00" lane="VODUGES_beg_0" slope="0.00"/>
    </timestep>
    <timestep time="16.00">
        <vehicle id="overtaking" x="156.06" y="-1.65" angle="90.00" type="DEFAULT_VEHTYPE" speed="13.65" pos="156.06" lane="VODUGES_beg_0" slope="0.00"/>
        <vehicle id="stopped" x="50.00" y="-1.65" angle="90.00" type="DEFAULT_VEHTYPE" speed="0.00" pos="50.00" lane="VODUGES_beg_0" slope="0.00"/>
    </timestep>
    <timestep time="16.20">
        <vehicle id="overtaking" x="158.80" y="-1.65" angle="90.00" type="DEFAULT_VEHTYPE" speed="13.76" pos="158.80" lane="VODUGES_beg_0" slope="0.00"/>
        <vehicle id="stopped" x="50.00" y="-1.65" angle="90.00" type="DEFAULT_VEHTYPE" speed="0.00" pos="50.00" lane="VODUGES_beg_0" slope="0.00"/>
    </timestep>
    <timestep time="16.40">
        <vehicle id="overtaking" x="161.55" y="-1.65" angle="90.00" type="DEFAULT_VEHTYPE" speed="13.78" pos="161.55" lane="VODUGES_beg_0" slope="0.00"/>
        <vehicle id="stopped" x="50.00" y="-1.65" angle="90.00" type="DEFAULT_VEHTYPE" speed="0.00" pos="50.00" lane="VODUGES_beg_0" slope="0.00"/>
    </timestep>
    <timestep time="16.60">
        <vehicle id="overtaking" x="164.30" y="-1.65" angle="90.00" type="DEFAULT_VEHTYPE" speed="13.67" pos="164.30" lane="VODUGES_beg_0" slope="0.00"/>
        <vehicle id="stopped" x="50.00" y="-1.65" angle="90.00" type="DEFAULT_VEHTYPE" speed="0.00" pos="50.00" lane="VODUGES_beg_0" slope="0.00"/>
    </timestep>
    <timestep time="16.80">
        <vehicle id="overtaking" x="167.05" y="-1.65" angle="90.00" type="DEFAULT_VEHTYPE" speed="13.79" pos="167.05" lane="VODUGES_beg_0" slope="0.00"/>