<?xml version="1.0" encoding="UTF-8"?>

<!-- generated on Tue Apr  5 13:45:43 2016 by SUMO Version dev-SVN-r20343
<?xml version="1.0" encoding="UTF-8"?>

<configuration xmlns:xsi="http://www.w3.org/2001/XMLSchema-instance" xsi:noNamespaceSchemaLocation="http://sumo.dlr.de/xsd/sumoConfiguration.xsd">

    <input>
        <net-file value="net.net.xml"/>
        <route-files value="input_routes.rou.xml"/>
        <additional-files value="input_additional.add.xml"/>
    </input>

    <time>
        <begin value="0"/>
        <end value="10000"/>
    </time>

    <report>
        <xml-validation value="never"/>
        <duration-log.disable value="true"/>
        <no-step-log value="true"/>
    </report>

</configuration>
-->

<meandata xmlns:xsi="http://www.w3.org/2001/XMLSchema-instance" xsi:noNamespaceSchemaLocation="http://sumo.dlr.de/xsd/meandata_file.xsd">
    <interval begin="0.00" end="60.00" id="dump_60">
        <edge id="1/1to2/1" sampledSeconds="602.62" traveltime="55.91" density="10.25" occupancy="5.12" waitingTime="0.00" speed="17.53" departed="20" arrived="0" entered="0" left="2" laneChangedFrom="0" laneChangedTo="0"/>
        <edge id="2/1to3/1" sampledSeconds="7.65" traveltime="50.00" density="0.13" occupancy="0.07" waitingTime="0.00" speed="19.60" departed="0" arrived="0" entered="2" left="0" laneChangedFrom="0" laneChangedTo="0"/>
    </interval>
    <interval begin="60.00" end="120.00" id="dump_60">
        <edge id="1/1to2/1" sampledSeconds="1076.25" traveltime="53.25" density="18.30" occupancy="9.15" waitingTime="0.00" speed="18.40" departed="20" arrived="0" entered="0" left="20" laneChangedFrom="0" laneChangedTo="0"/>
        <edge id="2/1to3/1" sampledSeconds="691.08" traveltime="50.00" density="11.75" occupancy="5.88" waitingTime="0.00" speed="19.60" departed="0" arrived="0" entered="20" left="6" laneChangedFrom="0" laneChangedTo="0"/>
        <edge id="3/1to4/1" sampledSeconds="46.03" traveltime="50.00" density="0.78" occupancy="0.39" waitingTime="0.00" speed="19.60" departed="0" arrived="0" entered="6" left="0" laneChangedFrom="0" laneChangedTo="0"/>
    </interval>
    <interval begin="120.00" end="180.00" id="dump_60">
        <edge id="1/1to2/1" sampledSeconds="1076.25" traveltime="53.25" density="18.30" occupancy="9.15" waitingTime="0.00" speed="18.40" departed="20" arrived="0" entered="0" left="20" laneChangedFrom="0" laneChangedTo="0"/>
        <edge id="2/1to3/1" sampledSeconds="1005.21" traveltime="50.00" density="17.10" occupancy="8.55" waitingTime="0.00" speed="19.60" departed="0" arrived="0" entered="20" left="20" laneChangedFrom="0" laneChangedTo="0"/>
        <edge id="3/1to4/1" sampledSeconds="817.55" traveltime="50.00" density="13.90" occupancy="6.95" waitingTime="0.00" speed="19.60" departed="0" arrived="0" entered="20" left="9" laneChangedFrom="0" laneChangedTo="0"/>
        <edge id="4/1to5/1" sampledSeconds="117.18" traveltime="50.00" density="1.99" occupancy="1.00" waitingTime="0.00" speed="19.60" departed="0" arrived="0" entered="9" left="0" laneChangedFrom="0" laneChangedTo="0"/>
    </interval>
    <interval begin="180.00" end="240.00" id="dump_60">
        <edge id="1/1to2/1" sampledSeconds="1076.25" traveltime="53.25" density="18.30" occupancy="9.15" waitingTime="0.00" speed="18.40" departed="20" arrived="0" entered="0" left="20" laneChangedFrom="0" laneChangedTo="0"/>
        <edge id="2/1to3/1" sampledSeconds="1005.21" traveltime="50.00" density="17.10" occupancy="8.55" waitingTime="0.00" speed="19.60" departed="0" arrived="0" entered="20" left="20" laneChangedFrom="0" laneChangedTo="0"/>
        <edge id="3/1to4/1" sampledSeconds="1005.93" traveltime="50.00" density="17.11" occupancy="8.55" waitingTime="0.00" speed="19.60" departed="0" arrived="0" entered="20" left="20" laneChangedFrom="0" laneChangedTo="0"/>
        <edge id="4/1to5/1" sampledSeconds="911.40" traveltime="50.00" density="15.50" occupancy="7.75" waitingTime="0.00" speed="19.60" departed="0" arrived="0" entered="20" left="12" laneChangedFrom="0" laneChangedTo="0"/>
        <edge id="5/1to6/1" sampledSeconds="220.42" traveltime="50.00" density="3.75" occupancy="1.87" waitingTime="0.00" speed="19.60" departed="0" arrived="0" entered="12" left="0" laneChangedFrom="0" laneChangedTo="0"/>
    </interval>
    <interval begin="240.00" end="300.00" id="dump_60">
        <edge id="1/1to2/1" sampledSeconds="1076.25" traveltime="53.25" density="18.30" occupancy="9.15" waitingTime="0.00" speed="18.40" departed="20" arrived="0" entered="0" left="20" laneChangedFrom="0" laneChangedTo="0"/>
        <edge id="2/1to3/1" sampledSeconds="1005.21" traveltime="50.00" density="17.10" occupancy="8.55" waitingTime="0.00" speed="19.60" departed="0" arrived="0" entered="20" left="20" laneChangedFrom="0" laneChangedTo="0"/>
        <edge id="3/1to4/1" sampledSeconds="1005.93" traveltime="50.00" density="17.11" occupancy="8.55" waitingTime="0.00" speed="19.60" departed="0" arrived="0" entered="20" left="20" laneChangedFrom="0" laneChangedTo="0"/>
        <edge id="4/1to5/1" sampledSeconds="1005.40" traveltime="50.00" density="17.10" occupancy="8.55" waitingTime="0.00" speed="19.60" departed="0" arrived="0" entered="20" left="20" laneChangedFrom="0" laneChangedTo="0"/>
        <edge id="5/1to6/1" sampledSeconds="972.99" traveltime="50.00" density="16.55" occupancy="8.27" waitingTime="0.00" speed="19.60" departed="0" arrived="0" entered="20" left="15" laneChangedFrom="0" laneChangedTo="0"/>
        <edge id="6/1to7/1" sampledSeconds="355.75" traveltime="50.00" density="6.05" occupancy="3.03" waitingTime="0.00" speed="19.60" departed="0" arrived="0" entered="15" left="0" laneChangedFrom="0" laneChangedTo="0"/>
    </interval>
    <interval begin="300.00" end="360.00" id="dump_60">
        <edge id="1/1to2/1" sampledSeconds="1076.25" traveltime="53.25" density="18.30" occupancy="9.15" waitingTime="0.00" speed="18.40" departed="20" arrived="0" entered="0" left="20" laneChangedFrom="0" laneChangedTo="0"/>
        <edge id="2/1to3/1" sampledSeconds="1005.21" traveltime="50.00" density="17.10" occupancy="8.55" waitingTime="0.00" speed="19.60" departed="0" arrived="0" entered="20" left="20" laneChangedFrom="0" laneChangedTo="0"/>
        <edge id="3/1to4/1" sampledSeconds="1005.93" traveltime="50.00" density="17.11" occupancy="8.55" waitingTime="0.00" speed="19.60" departed="0" arrived="0" entered="20" left="20" laneChangedFrom="0" laneChangedTo="0"/>
        <edge id="4/1to5/1" sampledSeconds="1005.40" traveltime="50.00" density="17.10" occupancy="8.55" waitingTime="0.00" speed="19.60" departed="0" arrived="0" entered="20" left="20" laneChangedFrom="0" laneChangedTo="0"/>
        <edge id="5/1to6/1" sampledSeconds="1004.87" traveltime="50.00" density="17.09" occupancy="8.55" waitingTime="0.00" speed="19.60" departed="0" arrived="0" entered="20" left="20" laneChangedFrom="0" laneChangedTo="0"/>
        <edge id="6/1to7/1" sampledSeconds="1003.02" traveltime="50.00" density="17.06" occupancy="8.53" waitingTime="0.00" speed="19.60" departed="0" arrived="0" entered="20" left="19" laneChangedFrom="0" laneChangedTo="0"/>
        <edge id="7/1to8/1" sampledSeconds="518.12" traveltime="50.00" density="8.81" occupancy="4.41" waitingTime="0.00" speed="19.60" departed="0" arrived="0" entered="19" left="2" laneChangedFrom="0" laneChangedTo="0"/>
        <edge id="8/1to9/1" sampledSeconds="5.83" traveltime="50.00" density="0.10" occupancy="0.05" waitingTime="0.00" speed="19.60" departed="0" arrived="0" entered="2" left="0" laneChangedFrom="0" laneChangedTo="0"/>
    </interval>
    <interval begin="360.00" end="420.00" id="dump_60">
        <edge id="1/1to2/1" sampledSeconds="1076.25" traveltime="53.25" density="18.30" occupancy="9.15" waitingTime="0.00" speed="18.40" departed="20" arrived="0" entered="0" left="20" laneChangedFrom="0" laneChangedTo="0"/>
        <edge id="2/1to3/1" sampledSeconds="1005.21" traveltime="50.00" density="17.10" occupancy="8.55" waitingTime="0.00" speed="19.60" departed="0" arrived="0" entered="20" left="20" laneChangedFrom="0" laneChangedTo="0"/>
        <edge id="3/1to4/1" sampledSeconds="1005.93" traveltime="50.00" density="17.11" occupancy="8.55" waitingTime="0.00" speed="19.60" departed="0" arrived="0" entered="20" left="20" laneChangedFrom="0" laneChangedTo="0"/>
        <edge id="4/1to5/1" sampledSeconds="1005.40" traveltime="50.00" density="17.10" occupancy="8.55" waitingTime="0.00" speed="19.60" departed="0" arrived="0" entered="20" left="20" laneChangedFrom="0" laneChangedTo="0"/>
        <edge id="5/1to6/1" sampledSeconds="1004.87" traveltime="50.00" density="17.09" occupancy="8.55" waitingTime="0.00" speed="19.60" departed="0" arrived="0" entered="20" left="20" laneChangedFrom="0" laneChangedTo="0"/>
        <edge id="6/1to7/1" sampledSeconds="1005.59" traveltime="50.00" density="17.10" occupancy="8.55" waitingTime="0.00" speed="19.60" departed="0" arrived="0" entered="20" left="20" laneChangedFrom="0" laneChangedTo="0"/>
        <edge id="7/1to8/1" sampledSeconds="1005.06" traveltime="50.00" density="17.09" occupancy="8.55" waitingTime="0.00" speed="19.60" departed="0" arrived="0" entered="20" left="20" laneChangedFrom="0" laneChangedTo="0"/>
        <edge id="8/1to9/1" sampledSeconds="677.65" traveltime="50.00" density="11.53" occupancy="5.76" waitingTime="0.00" speed="19.60" departed="0" arrived="0" entered="20" left="5" laneChangedFrom="0" laneChangedTo="0"/>
        <edge id="9/1to10/1" sampledSeconds="41.31" traveltime="50.00" density="0.70" occupancy="0.35" waitingTime="0.00" speed="19.60" departed="0" arrived="0" entered="5" left="0" laneChangedFrom="0" laneChangedTo="0"/>
    </interval>
    <interval begin="420.00" end="480.00" id="dump_60">
        <edge id="1/1to2/1" sampledSeconds="1076.25" traveltime="53.25" density="18.30" occupancy="9.15" waitingTime="0.00" speed="18.40" departed="20" arrived="0" entered="0" left="20" laneChangedFrom="0" laneChangedTo="0"/>
        <edge id="10/1to1/1" sampledSeconds="109.00" traveltime="51.96" density="1.85" occupancy="0.93" waitingTime="0.00" speed="18.86" departed="0" arrived="0" entered="9" left="0" laneChangedFrom="0" laneChangedTo="0"/>
        <edge id="2/1to3/1" sampledSeconds="1005.21" traveltime="50.00" density="17.10" occupancy="8.55" waitingTime="0.00" speed="19.60" departed="0" arrived="0" entered="20" left="20" laneChangedFrom="0" laneChangedTo="0"/>
        <edge id="3/1to4/1" sampledSeconds="1005.93" traveltime="50.00" density="17.11" occupancy="8.55" waitingTime="0.00" speed="19.60" departed="0" arrived="0" entered="20" left="20" laneChangedFrom="0" laneChangedTo="0"/>
        <edge id="4/1to5/1" sampledSeconds="1005.40" traveltime="50.00" density="17.10" occupancy="8.55" waitingTime="0.00" speed="19.60" departed="0" arrived="0" entered="20" left="20" laneChangedFrom="0" laneChangedTo="0"/>
        <edge id="5/1to6/1" sampledSeconds="1004.87" traveltime="50.00" density="17.09" occupancy="8.55" waitingTime="0.00" speed="19.60" departed="0" arrived="0" entered="20" left="20" laneChangedFrom="0" laneChangedTo="0"/>
        <edge id="6/1to7/1" sampledSeconds="1005.59" traveltime="50.00" density="17.10" occupancy="8.55" waitingTime="0.00" speed="19.60" departed="0" arrived="0" entered="20" left="20" laneChangedFrom="0" laneChangedTo="0"/>
        <edge id="7/1to8/1" sampledSeconds="1005.06" traveltime="50.00" density="17.09" occupancy="8.55" waitingTime="0.00" speed="19.60" departed="0" arrived="0" entered="20" left="20" laneChangedFrom="0" laneChangedTo="0"/>
        <edge id="8/1to9/1" sampledSeconds="1005.78" traveltime="50.00" density="17.11" occupancy="8.55" waitingTime="0.00" speed="19.60" departed="0" arrived="0" entered="20" left="20" laneChangedFrom="0" laneChangedTo="0"/>
        <edge id="9/1to10/1" sampledSeconds="807.24" traveltime="50.00" density="13.73" occupancy="6.86" waitingTime="0.00" speed="19.60" departed="0" arrived="0" entered="20" left="9" laneChangedFrom="0" laneChangedTo="0"/>
    </interval>
    <interval begin="480.00" end="540.00" id="dump_60">
        <edge id="1/1to2/1" sampledSeconds="1083.03" traveltime="52.75" density="18.42" occupancy="9.21" waitingTime="0.00" speed="18.58" departed="16" arrived="0" entered="6" left="20" laneChangedFrom="0" laneChangedTo="0"/>
        <edge id="10/1to1/1" sampledSeconds="1080.22" traveltime="64.90" density="18.37" occupancy="9.19" waitingTime="0.00" speed="15.10" departed="0" arrived="0" entered="20" left="6" laneChangedFrom="0" laneChangedTo="0"/>
        <edge id="2/1to3/1" sampledSeconds="1005.21" traveltime="50.00" density="17.10" occupancy="8.55" waitingTime="0.00" speed="19.60" departed="0" arrived="0" entered="20" left="20" laneChangedFrom="0" laneChangedTo="0"/>
        <edge id="3/1to4/1" sampledSeconds="1005.93" traveltime="50.00" density="17.11" occupancy="8.55" waitingTime="0.00" speed="19.60" departed="0" arrived="0" entered="20" left="20" laneChangedFrom="0" laneChangedTo="0"/>
        <edge id="4/1to5/1" sampledSeconds="1005.40" traveltime="50.00" density="17.10" occupancy="8.55" waitingTime="0.00" speed="19.60" departed="0" arrived="0" entered="20" left="20" laneChangedFrom="0" laneChangedTo="0"/>
        <edge id="5/1to6/1" sampledSeconds="1004.87" traveltime="50.00" density="17.09" occupancy="8.55" waitingTime="0.00" speed="19.60" departed="0" arrived="0" entered="20" left="20" laneChangedFrom="0" laneChangedTo="0"/>
        <edge id="6/1to7/1" sampledSeconds="1005.59" traveltime="50.00" density="17.10" occupancy="8.55" waitingTime="0.00" speed="19.60" departed="0" arrived="0" entered="20" left="20" laneChangedFrom="0" laneChangedTo="0"/>
        <edge id="7/1to8/1" sampledSeconds="1005.06" traveltime="50.00" density="17.09" occupancy="8.55" waitingTime="0.00" speed="19.60" departed="0" arrived="0" entered="20" left="20" laneChangedFrom="0" laneChangedTo="0"/>
        <edge id="8/1to9/1" sampledSeconds="1005.78" traveltime="50.00" density="17.11" occupancy="8.55" waitingTime="0.00" speed="19.60" departed="0" arrived="0" entered="20" left="20" laneChangedFrom="0" laneChangedTo="0"/>
        <edge id="9/1to10/1" sampledSeconds="1005.32" traveltime="50.00" density="17.10" occupancy="8.55" waitingTime="0.00" speed="19.60" departed="0" arrived="0" entered="20" left="20" laneChangedFrom="0" laneChangedTo="0"/>
    </interval>
    <interval begin="540.00" end="600.00" id="dump_60">
        <edge id="1/1to2/1" sampledSeconds="1395.23" traveltime="50.00" density="23.73" occupancy="11.86" waitingTime="0.00" speed="19.60" departed="0" arrived="0" entered="26" left="26" laneChangedFrom="0" laneChangedTo="0"/>
        <edge id="10/1to1/1" sampledSeconds="1085.03" traveltime="50.19" density="18.45" occupancy="9.23" waitingTime="0.00" speed="19.53" departed="0" arrived="0" entered="20" left="26" laneChangedFrom="0" laneChangedTo="0"/>
        <edge id="2/1to3/1" sampledSeconds="1067.26" traveltime="50.00" density="18.15" occupancy="9.08" waitingTime="0.00" speed="19.60" departed="0" arrived="0" entered="26" left="20" laneChangedFrom="0" laneChangedTo="0"/>
        <edge id="3/1to4/1" sampledSeconds="1005.93" traveltime="50.00" density="17.11" occupancy="8.55" waitingTime="0.00" speed="19.60" departed="0" arrived="0" entered="20" left="20" laneChangedFrom="0" laneChangedTo="0"/>
        <edge id="4/1to5/1" sampledSeconds="1005.40" traveltime="50.00" density="17.10" occupancy="8.55" waitingTime="0.00" speed="19.60" departed="0" arrived="0" entered="20" left="20" laneChangedFrom="0" laneChangedTo="0"/>
        <edge id="5/1to6/1" sampledSeconds="1004.87" traveltime="50.00" density="17.09" occupancy="8.55" waitingTime="0.00" speed="19.60" departed="0" arrived="0" entered="20" left="20" laneChangedFrom="0" laneChangedTo="0"/>
        <edge id="6/1to7/1" sampledSeconds="1005.59" traveltime="50.00" density="17.10" occupancy="8.55" waitingTime="0.00" speed="19.60" departed="0" arrived="0" entered="20" left="20" laneChangedFrom="0" laneChangedTo="0"/>
        <edge id="7/1to8/1" sampledSeconds="1005.06" traveltime="50.00" density="17.09" occupancy="8.55" waitingTime="0.00" speed="19.60" departed="0" arrived="0" entered="20" left="20" laneChangedFrom="0" laneChangedTo="0"/>
        <edge id="8/1to9/1" sampledSeconds="1005.78" traveltime="50.00" density="17.11" occupancy="8.55" waitingTime="0.00" speed="19.60" departed="0" arrived="0" entered="20" left="20" laneChangedFrom="0" laneChangedTo="0"/>
        <edge id="9/1to10/1" sampledSeconds="1005.24" traveltime="50.00" density="17.10" occupancy="8.55" waitingTime="0.00" speed="19.60" departed="0" arrived="0" entered="20" left="20" laneChangedFrom="0" laneChangedTo="0"/>
    </interval>
    <interval begin="600.00" end="660.00" id="dump_60">
        <edge id="1/1to2/1" sampledSeconds="1043.00" traveltime="50.00" density="17.74" occupancy="8.87" waitingTime="0.00" speed="19.60" departed="0" arrived="0" entered="20" left="23" laneChangedFrom="0" laneChangedTo="0"/>
        <edge id="10/1to1/1" sampledSeconds="1005.96" traveltime="50.00" density="17.11" occupancy="8.55" waitingTime="0.00" speed="19.60" departed="0" arrived="0" entered="20" left="20" laneChangedFrom="0" laneChangedTo="0"/>
        <edge id="2/1to3/1" sampledSeconds="1371.40" traveltime="50.00" density="23.32" occupancy="11.66" waitingTime="0.00" speed="19.60" departed="0" arrived="0" entered="23" left="27" laneChangedFrom="0" laneChangedTo="0"/>
        <edge id="3/1to4/1" sampledSeconds="1133.27" traveltime="50.00" density="19.27" occupancy="9.64" waitingTime="0.00" speed="19.60" departed="0" arrived="0" entered="27" left="20" laneChangedFrom="0" laneChangedTo="0"/>
        <edge id="4/1to5/1" sampledSeconds="1005.40" traveltime="50.00" density="17.10" occupancy="8.55" waitingTime="0.00" speed="19.60" departed="0" arrived="0" entered="20" left="20" laneChangedFrom="0" laneChangedTo="0"/>
        <edge id="5/1to6/1" sampledSeconds="1004.87" traveltime="50.00" density="17.09" occupancy="8.55" waitingTime="0.00" speed="19.60" departed="0" arrived="0" entered="20" left="20" laneChangedFrom="0" laneChangedTo="0"/>
        <edge id="6/1to7/1" sampledSeconds="1005.59" traveltime="50.00" density="17.10" occupancy="8.55" waitingTime="0.00" speed="19.60" departed="0" arrived="0" entered="20" left="20" laneChangedFrom="0" laneChangedTo="0"/>
        <edge id="7/1to8/1" sampledSeconds="1005.06" traveltime="50.00" density="17.09" occupancy="8.55" waitingTime="0.00" speed="19.60" departed="0" arrived="0" entered="20" left="20" laneChangedFrom="0" laneChangedTo="0"/>
        <edge id="8/1to9/1" sampledSeconds="1005.78" traveltime="50.00" density="17.11" occupancy="8.55" waitingTime="0.00" speed="19.60" departed="0" arrived="0" entered="20" left="20" laneChangedFrom="0" laneChangedTo="0"/>
        <edge id="9/1to10/1" sampledSeconds="1005.24" traveltime="50.00" density="17.10" occupancy="8.55" waitingTime="0.00" speed="19.60" departed="0" arrived="0" entered="20" left="20" laneChangedFrom="0" laneChangedTo="0"/>
    </interval>
    <interval begin="660.00" end="720.00" id="dump_60">
        <edge id="1/1to2/1" sampledSeconds="1005.43" traveltime="50.00" density="17.10" occupancy="8.55" waitingTime="0.00" speed="19.60" departed="0" arrived="0" entered="20" left="20" laneChangedFrom="0" laneChangedTo="0"/>
        <edge id="10/1to1/1" sampledSeconds="1005.96" traveltime="50.00" density="17.11" occupancy="8.55" waitingTime="0.00" speed="19.60" departed="0" arrived="0" entered="20" left="20" laneChangedFrom="0" laneChangedTo="0"/>
        <edge id="2/1to3/1" sampledSeconds="1021.22" traveltime="50.00" density="17.37" occupancy="8.68" waitingTime="0.00" speed="19.60" departed="0" arrived="0" entered="20" left="21" laneChangedFrom="0" laneChangedTo="0"/>
        <edge id="3/1to4/1" sampledSeconds="1317.07" traveltime="50.00" density="22.40" occupancy="11.20" waitingTime="0.00" speed="19.60" departed="0" arrived="0" entered="21" left="28" laneChangedFrom="0" laneChangedTo="0"/>
        <edge id="4/1to5/1" sampledSeconds="1209.20" traveltime="50.00" density="20.57" occupancy="10.28" waitingTime="0.00" speed="19.60" departed="0" arrived="0" entered="28" left="20" laneChangedFrom="0" laneChangedTo="0"/>
        <edge id="5/1to6/1" sampledSeconds="1004.87" traveltime="50.00" density="17.09" occupancy="8.55" waitingTime="0.00" speed="19.60" departed="0" arrived="0" entered="20" left="20" laneChangedFrom="0" laneChangedTo="0"/>
        <edge id="6/1to7/1" sampledSeconds="1005.59" traveltime="50.00" density="17.10" occupancy="8.55" waitingTime="0.00" speed="19.60" departed="0" arrived="0" entered="20" left="20" laneChangedFrom="0" laneChangedTo="0"/>
        <edge id="7/1to8/1" sampledSeconds="1005.06" traveltime="50.00" density="17.09" occupancy="8.55" waitingTime="0.00" speed="19.60" departed="0" arrived="0" entered="20" left="20" laneChangedFrom="0" laneChangedTo="0"/>
        <edge id="8/1to9/1" sampledSeconds="1005.78" traveltime="50.00" density="17.11" occupancy="8.55" waitingTime="0.00" speed="19.60" departed="0" arrived="0" entered="20" left="20" laneChangedFrom="0" laneChangedTo="0"/>
        <edge id="9/1to10/1" sampledSeconds="1005.24" traveltime="50.00" density="17.10" occupancy="8.55" waitingTime="0.00" speed="19.60" departed="0" arrived="0" entered="20" left="20" laneChangedFrom="0" laneChangedTo="0"/>
    </interval>
    <interval begin="720.00" end="780.00" id="dump_60">
        <edge id="1/1to2/1" sampledSeconds="1005.43" traveltime="50.00" density="17.10" occupancy="8.55" waitingTime="0.00" speed="19.60" departed="0" arrived="0" entered="20" left="20" laneChangedFrom="0" laneChangedTo="0"/>
        <edge id="10/1to1/1" sampledSeconds="1005.96" traveltime="50.00" density="17.11" occupancy="8.55" waitingTime="0.00" speed="19.60" departed="0" arrived="0" entered="20" left="20" laneChangedFrom="0" laneChangedTo="0"/>
        <edge id="2/1to3/1" sampledSeconds="1006.15" traveltime="50.00" density="17.11" occupancy="8.56" waitingTime="0.00" speed="19.60" departed="0" arrived="0" entered="20" left="20" laneChangedFrom="0" laneChangedTo="0"/>
        <edge id="3/1to4/1" sampledSeconds="1011.00" traveltime="50.00" density="17.19" occupancy="8.60" waitingTime="0.00" speed="19.60" departed="0" arrived="0" entered="20" left="21" laneChangedFrom="0" laneChangedTo="0"/>
        <edge id="4/1to5/1" sampledSeconds="1244.20" traveltime="50.00" density="21.16" occupancy="10.58" waitingTime="0.00" speed="19.60" departed="0" arrived="0" entered="21" left="29" laneChangedFrom="0" laneChangedTo="0"/>
        <edge id="5/1to6/1" sampledSeconds="1291.62" traveltime="50.00" density="21.97" occupancy="10.98" waitingTime="0.00" speed="19.60" departed="0" arrived="0" entered="29" left="20" laneChangedFrom="0" laneChangedTo="0"/>
        <edge id="6/1to7/1" sampledSeconds="1005.59" traveltime="50.00" density="17.10" occupancy="8.55" waitingTime="0.00" speed="19.60" departed="0" arrived="0" entered="20" left="20" laneChangedFrom="0" laneChangedTo="0"/>
        <edge id="7/1to8/1" sampledSeconds="1005.06" traveltime="50.00" density="17.09" occupancy="8.55" waitingTime="0.00" speed="19.60" departed="0" arrived="0" entered="20" left="20" laneChangedFrom="0" laneChangedTo="0"/>
        <edge id="8/1to9/1" sampledSeconds="1005.78" traveltime="50.00" density="17.11" occupancy="8.55" waitingTime="0.00" speed="19.60" departed="0" arrived="0" entered="20" left="20" laneChangedFrom="0" laneChangedTo="0"/>
        <edge id="9/1to10/1" sampledSeconds="1005.24" traveltime="50.00" density="17.10" occupancy="8.55" waitingTime="0.00" speed="19.60" departed="0" arrived="0" entered="20" left="20" laneChangedFrom="0" laneChangedTo="0"/>
    </interval>
    <interval begin="780.00" end="840.00" id="dump_60">
        <edge id="1/1to2/1" sampledSeconds="1005.43" traveltime="50.00" density="17.10" occupancy="8.55" waitingTime="0.00" speed="19.60" departed="0" arrived="0" entered="20" left="20" laneChangedFrom="0" laneChangedTo="0"/>
        <edge id="10/1to1/1" sampledSeconds="1005.96" traveltime="50.00" density="17.11" occupancy="8.55" waitingTime="0.00" speed="19.60" departed="0" arrived="0" entered="20" left="20" laneChangedFrom="0" laneChangedTo="0"/>
        <edge id="2/1to3/1" sampledSeconds="1006.15" traveltime="50.00" density="17.11" occupancy="8.56" waitingTime="0.00" speed="19.60" departed="0" arrived="0" entered="20" left="20" laneChangedFrom="0" laneChangedTo="0"/>
        <edge id="3/1to4/1" sampledSeconds="1005.62" traveltime="50.00" density="17.10" occupancy="8.55" waitingTime="0.00" speed="19.60" departed="0" arrived="0" entered="20" left="20" laneChangedFrom="0" laneChangedTo="0"/>
        <edge id="4/1to5/1" sampledSeconds="1007.03" traveltime="50.00" density="17.13" occupancy="8.56" waitingTime="0.00" speed="19.60" departed="0" arrived="0" entered="20" left="20" laneChangedFrom="0" laneChangedTo="0"/>
        <edge id="5/1to6/1" sampledSeconds="1162.11" traveltime="50.00" density="19.77" occupancy="9.88" waitingTime="0.00" speed="19.60" departed="0" arrived="0" entered="20" left="29" laneChangedFrom="0" laneChangedTo="0"/>
        <edge id="6/1to7/1" sampledSeconds="1364.96" traveltime="50.00" density="23.21" occupancy="11.61" waitingTime="0.00" speed="19.60" departed="0" arrived="0" entered="29" left="23" laneChangedFrom="0" laneChangedTo="0"/>
        <edge id="7/1to8/1" sampledSeconds="1018.99" traveltime="50.00" density="17.33" occupancy="8.67" waitingTime="0.00" speed="19.60" departed="0" arrived="0" entered="23" left="20" laneChangedFrom="0" laneChangedTo="0"/>
        <edge id="8/1to9/1" sampledSeconds="1005.78" traveltime="50.00" density="17.11" occupancy="8.55" waitingTime="0.00" speed="19.60" departed="0" arrived="0" entered="20" left="20" laneChangedFrom="0" laneChangedTo="0"/>
        <edge id="9/1to10/1" sampledSeconds="1005.24" traveltime="50.00" density="17.10" occupancy="8.55" waitingTime="0.00" speed="19.60" departed="0" arrived="0" entered="20" left="20" laneChangedFrom="0" laneChangedTo="0"/>
    </interval>
    <interval begin="840.00" end="900.00" id="dump_60">
        <edge id="1/1to2/1" sampledSeconds="1005.43" traveltime="50.00" density="17.10" occupancy="8.55" waitingTime="0.00" speed="19.60" departed="0" arrived="0" entered="20" left="20" laneChangedFrom="0" laneChangedTo="0"/>
        <edge id="10/1to1/1" sampledSeconds="1005.96" traveltime="50.00" density="17.11" occupancy="8.55" waitingTime="0.00" speed="19.60" departed="0" arrived="0" entered="20" left="20" laneChangedFrom="0" laneChangedTo="0"/>
        <edge id="2/1to3/1" sampledSeconds="1006.15" traveltime="50.00" density="17.11" occupancy="8.56" waitingTime="0.00" speed="19.60" departed="0" arrived="0" entered="20" left="20" laneChangedFrom="0" laneChangedTo="0"/>
        <edge id="3/1to4/1" sampledSeconds="1005.62" traveltime="50.00" density="17.10" occupancy="8.55" waitingTime="0.00" speed="19.60" departed="0" arrived="0" entered="20" left="20" laneChangedFrom="0" laneChangedTo="0"/>
        <edge id="4/1to5/1" sampledSeconds="1006.34" traveltime="50.00" density="17.12" occupancy="8.56" waitingTime="0.00" speed="19.60" departed="0" arrived="0" entered="20" left="20" laneChangedFrom="0" laneChangedTo="0"/>
        <edge id="5/1to6/1" sampledSeconds="1004.87" traveltime="50.00" density="17.09" occupancy="8.55" waitingTime="0.00" speed="19.60" departed="0" arrived="0" entered="20" left="20" laneChangedFrom="0" laneChangedTo="0"/>
        <edge id="6/1to7/1" sampledSeconds="1090.00" traveltime="50.00" density="18.54" occupancy="9.27" waitingTime="0.00" speed="19.60" departed="0" arrived="0" entered="20" left="26" laneChangedFrom="0" laneChangedTo="0"/>
        <edge id="7/1to8/1" sampledSeconds="1394.53" traveltime="50.00" density="23.72" occupancy="11.86" waitingTime="0.00" speed="19.60" departed="0" arrived="0" entered="26" left="26" laneChangedFrom="0" laneChangedTo="0"/>
        <edge id="8/1to9/1" sampledSeconds="1062.42" traveltime="50.00" density="18.07" occupancy="9.03" waitingTime="0.00" speed="19.60" departed="0" arrived="0" entered="25" left="20" laneChangedFrom="0" laneChangedTo="0"/>
        <edge id="9/1to10/1" sampledSeconds="1005.24" traveltime="50.00" density="17.10" occupancy="8.55" waitingTime="0.00" speed="19.60" departed="0" arrived="0" entered="20" left="20" laneChangedFrom="0" laneChangedTo="0"/>
    </interval>
    <interval begin="900.00" end="960.00" id="dump_60">
        <edge id="1/1to2/1" sampledSeconds="1005.43" traveltime="50.00" density="17.10" occupancy="8.55" waitingTime="0.00" speed="19.60" departed="0" arrived="0" entered="20" left="20" laneChangedFrom="0" laneChangedTo="0"/>
        <edge id="10/1to1/1" sampledSeconds="1005.96" traveltime="50.00" density="17.11" occupancy="8.55" waitingTime="0.00" speed="19.60" departed="0" arrived="0" entered="20" left="20" laneChangedFrom="0" laneChangedTo="0"/>
        <edge id="2/1to3/1" sampledSeconds="1006.15" traveltime="50.00" density="17.11" occupancy="8.56" waitingTime="0.00" speed="19.60" departed="0" arrived="0" entered="20" left="20" laneChangedFrom="0" laneChangedTo="0"/>
        <edge id="3/1to4/1" sampledSeconds="1005.62" traveltime="50.00" density="17.10" occupancy="8.55" waitingTime="0.00" speed="19.60" departed="0" arrived="0" entered="20" left="20" laneChangedFrom="0" laneChangedTo="0"/>
        <edge id="4/1to5/1" sampledSeconds="1006.34" traveltime="50.00" density="17.12" occupancy="8.56" waitingTime="0.00" speed="19.60" departed="0" arrived="0" entered="20" left="20" laneChangedFrom="0" laneChangedTo="0"/>
        <edge id="5/1to6/1" sampledSeconds="1004.56" traveltime="50.00" density="17.09" occupancy="8.54" waitingTime="0.00" speed="19.60" departed="0" arrived="0" entered="20" left="20" laneChangedFrom="0" laneChangedTo="0"/>
        <edge id="6/1to7/1" sampledSeconds="1005.28" traveltime="50.00" density="17.10" occupancy="8.55" waitingTime="0.00" speed="19.60" departed="0" arrived="0" entered="20" left="20" laneChangedFrom="0" laneChangedTo="0"/>