<?xml version="1.0" encoding="UTF-8"?>

<!-- generated on Fri Sep  9 15:31:02 2016 by SUMO Version dev-SVN-r21424
<?xml version="1.0" encoding="UTF-8"?>

<configuration xmlns:xsi="http://www.w3.org/2001/XMLSchema-instance" xsi:noNamespaceSchemaLocation="http://sumo.dlr.de/xsd/sumoConfiguration.xsd">

    <input>
        <net-file value="net.net.xml"/>
        <route-files value="input_routes.rou.xml"/>
        <additional-files value="input_additional.add.xml"/>
    </input>

    <time>
        <begin value="0"/>
        <end value="10000"/>
    </time>

    <processing>
        <step-method.ballistic value="true"/>
    </processing>

    <report>
        <xml-validation value="never"/>
        <duration-log.disable value="true"/>
        <no-step-log value="true"/>
    </report>

</configuration>
-->

<meandata xmlns:xsi="http://www.w3.org/2001/XMLSchema-instance" xsi:noNamespaceSchemaLocation="http://sumo.dlr.de/xsd/meandata_file.xsd">
    <interval begin="0.00" end="60.00" id="dump_60">
        <edge id="1/1to2/1" sampledSeconds="602.62" traveltime="55.92" overlapTraveltime="56.20" density="10.25" occupancy="5.12" waitingTime="0.00" speed="17.53" departed="20" arrived="0" entered="0" left="2" laneChangedFrom="0" laneChangedTo="0"/>
        <edge id="2/1to3/1" sampledSeconds="7.65" traveltime="50.00" overlapTraveltime="50.25" density="0.13" occupancy="0.07" waitingTime="0.00" speed="19.60" departed="0" arrived="0" entered="2" left="0" laneChangedFrom="0" laneChangedTo="0"/>
    </interval>
    <interval begin="60.00" end="120.00" id="dump_60">
        <edge id="1/1to2/1" sampledSeconds="1076.25" traveltime="53.27" overlapTraveltime="53.52" density="18.30" occupancy="9.15" waitingTime="0.00" speed="18.40" departed="20" arrived="0" entered="0" left="20" laneChangedFrom="0" laneChangedTo="0"/>
        <edge id="2/1to3/1" sampledSeconds="691.08" traveltime="50.00" overlapTraveltime="50.25" density="11.75" occupancy="5.88" waitingTime="0.00" speed="19.60" departed="0" arrived="0" entered="20" left="6" laneChangedFrom="0" laneChangedTo="0"/>
        <edge id="3/1to4/1" sampledSeconds="46.03" traveltime="50.00" overlapTraveltime="50.25" density="0.78" occupancy="0.39" waitingTime="0.00" speed="19.60" departed="0" arrived="0" entered="6" left="0" laneChangedFrom="0" laneChangedTo="0"/>
    </interval>
    <interval begin="120.00" end="180.00" id="dump_60">
        <edge id="1/1to2/1" sampledSeconds="1076.25" traveltime="53.27" overlapTraveltime="53.52" density="18.30" occupancy="9.15" waitingTime="0.00" speed="18.40" departed="20" arrived="0" entered="0" left="20" laneChangedFrom="0" laneChangedTo="0"/>
        <edge id="2/1to3/1" sampledSeconds="1005.21" traveltime="50.00" overlapTraveltime="50.25" density="17.10" occupancy="8.55" waitingTime="0.00" speed="19.60" departed="0" arrived="0" entered="20" left="20" laneChangedFrom="0" laneChangedTo="0"/>
        <edge id="3/1to4/1" sampledSeconds="817.55" traveltime="50.00" overlapTraveltime="50.25" density="13.90" occupancy="6.95" waitingTime="0.00" speed="19.60" departed="0" arrived="0" entered="20" left="9" laneChangedFrom="0" laneChangedTo="0"/>
        <edge id="4/1to5/1" sampledSeconds="117.18" traveltime="50.00" overlapTraveltime="50.25" density="1.99" occupancy="1.00" waitingTime="0.00" speed="19.60" departed="0" arrived="0" entered="9" left="0" laneChangedFrom="0" laneChangedTo="0"/>
    </interval>
    <interval begin="180.00" end="240.00" id="dump_60">
        <edge id="1/1to2/1" sampledSeconds="1076.25" traveltime="53.27" overlapTraveltime="53.52" density="18.30" occupancy="9.15" waitingTime="0.00" speed="18.40" departed="20" arrived="0" entered="0" left="20" laneChangedFrom="0" laneChangedTo="0"/>
        <edge id="2/1to3/1" sampledSeconds="1005.21" traveltime="50.00" overlapTraveltime="50.25" density="17.10" occupancy="8.55" waitingTime="0.00" speed="19.60" departed="0" arrived="0" entered="20" left="20" laneChangedFrom="0" laneChangedTo="0"/>
        <edge id="3/1to4/1" sampledSeconds="1005.93" traveltime="50.00" overlapTraveltime="50.25" density="17.11" occupancy="8.55" waitingTime="0.00" speed="19.60" departed="0" arrived="0" entered="20" left="20" laneChangedFrom="0" laneChangedTo="0"/>
        <edge id="4/1to5/1" sampledSeconds="911.40" traveltime="50.00" overlapTraveltime="50.25" density="15.50" occupancy="7.75" waitingTime="0.00" speed="19.60" departed="0" arrived="0" entered="20" left="12" laneChangedFrom="0" laneChangedTo="0"/>
        <edge id="5/1to6/1" sampledSeconds="220.42" traveltime="50.00" overlapTraveltime="50.25" density="3.75" occupancy="1.87" waitingTime="0.00" speed="19.60" departed="0" arrived="0" entered="12" left="0" laneChangedFrom="0" laneChangedTo="0"/>
    </interval>
    <interval begin="240.00" end="300.00" id="dump_60">
        <edge id="1/1to2/1" sampledSeconds="1076.25" traveltime="53.27" overlapTraveltime="53.52" density="18.30" occupancy="9.15" waitingTime="0.00" speed="18.40" departed="20" arrived="0" entered="0" left="20" laneChangedFrom="0" laneChangedTo="0"/>
        <edge id="2/1to3/1" sampledSeconds="1005.21" traveltime="50.00" overlapTraveltime="50.25" density="17.10" occupancy="8.55" waitingTime="0.00" speed="19.60" departed="0" arrived="0" entered="20" left="20" laneChangedFrom="0" laneChangedTo="0"/>
        <edge id="3/1to4/1" sampledSeconds="1005.93" traveltime="50.00" overlapTraveltime="50.25" density="17.11" occupancy="8.55" waitingTime="0.00" speed="19.60" departed="0" arrived="0" entered="20" left="20" laneChangedFrom="0" laneChangedTo="0"/>
        <edge id="4/1to5/1" sampledSeconds="1005.40" traveltime="50.00" overlapTraveltime="50.25" density="17.10" occupancy="8.55" waitingTime="0.00" speed="19.60" departed="0" arrived="0" entered="20" left="20" laneChangedFrom="0" laneChangedTo="0"/>
        <edge id="5/1to6/1" sampledSeconds="972.99" traveltime="50.00" overlapTraveltime="50.25" density="16.55" occupancy="8.27" waitingTime="0.00" speed="19.60" departed="0" arrived="0" entered="20" left="15" laneChangedFrom="0" laneChangedTo="0"/>
        <edge id="6/1to7/1" sampledSeconds="355.75" traveltime="50.00" overlapTraveltime="50.25" density="6.05" occupancy="3.03" waitingTime="0.00" speed="19.60" departed="0" arrived="0" entered="15" left="0" laneChangedFrom="0" laneChangedTo="0"/>
    </interval>
    <interval begin="300.00" end="360.00" id="dump_60">
        <edge id="1/1to2/1" sampledSeconds="1076.25" traveltime="53.27" overlapTraveltime="53.52" density="18.30" occupancy="9.15" waitingTime="0.00" speed="18.40" departed="20" arrived="0" entered="0" left="20" laneChangedFrom="0" laneChangedTo="0"/>
        <edge id="2/1to3/1" sampledSeconds="1005.21" traveltime="50.00" overlapTraveltime="50.25" density="17.10" occupancy="8.55" waitingTime="0.00" speed="19.60" departed="0" arrived="0" entered="20" left="20" laneChangedFrom="0" laneChangedTo="0"/>
        <edge id="3/1to4/1" sampledSeconds="1005.93" traveltime="50.00" overlapTraveltime="50.25" density="17.11" occupancy="8.55" waitingTime="0.00" speed="19.60" departed="0" arrived="0" entered="20" left="20" laneChangedFrom="0" laneChangedTo="0"/>
        <edge id="4/1to5/1" sampledSeconds="1005.40" traveltime="50.00" overlapTraveltime="50.25" density="17.10" occupancy="8.55" waitingTime="0.00" speed="19.60" departed="0" arrived="0" entered="20" left="20" laneChangedFrom="0" laneChangedTo="0"/>
        <edge id="5/1to6/1" sampledSeconds="1004.87" traveltime="50.00" overlapTraveltime="50.25" density="17.09" occupancy="8.55" waitingTime="0.00" speed="19.60" departed="0" arrived="0" entered="20" left="20" laneChangedFrom="0" laneChangedTo="0"/>
        <edge id="6/1to7/1" sampledSeconds="1003.02" traveltime="50.00" overlapTraveltime="50.25" density="17.06" occupancy="8.53" waitingTime="0.00" speed="19.60" departed="0" arrived="0" entered="20" left="19" laneChangedFrom="0" laneChangedTo="0"/>
        <edge id="7/1to8/1" sampledSeconds="518.12" traveltime="50.00" overlapTraveltime="50.25" density="8.81" occupancy="4.41" waitingTime="0.00" speed="19.60" departed="0" arrived="0" entered="19" left="2" laneChangedFrom="0" laneChangedTo="0"/>
        <edge id="8/1to9/1" sampledSeconds="5.83" traveltime="50.00" overlapTraveltime="50.25" density="0.10" occupancy="0.05" waitingTime="0.00" speed="19.60" departed="0" arrived="0" entered="2" left="0" laneChangedFrom="0" laneChangedTo="0"/>
    </interval>
    <interval begin="360.00" end="420.00" id="dump_60">
        <edge id="1/1to2/1" sampledSeconds="1076.25" traveltime="53.27" overlapTraveltime="53.52" density="18.30" occupancy="9.15" waitingTime="0.00" speed="18.40" departed="20" arrived="0" entered="0" left="20" laneChangedFrom="0" laneChangedTo="0"/>
        <edge id="2/1to3/1" sampledSeconds="1005.21" traveltime="50.00" overlapTraveltime="50.25" density="17.10" occupancy="8.55" waitingTime="0.00" speed="19.60" departed="0" arrived="0" entered="20" left="20" laneChangedFrom="0" laneChangedTo="0"/>
        <edge id="3/1to4/1" sampledSeconds="1005.93" traveltime="50.00" overlapTraveltime="50.25" density="17.11" occupancy="8.55" waitingTime="0.00" speed="19.60" departed="0" arrived="0" entered="20" left="20" laneChangedFrom="0" laneChangedTo="0"/>
        <edge id="4/1to5/1" sampledSeconds="1005.40" traveltime="50.00" overlapTraveltime="50.25" density="17.10" occupancy="8.55" waitingTime="0.00" speed="19.60" departed="0" arrived="0" entered="20" left="20" laneChangedFrom="0" laneChangedTo="0"/>
        <edge id="5/1to6/1" sampledSeconds="1004.87" traveltime="50.00" overlapTraveltime="50.25" density="17.09" occupancy="8.55" waitingTime="0.00" speed="19.60" departed="0" arrived="0" entered="20" left="20" laneChangedFrom="0" laneChangedTo="0"/>
        <edge id="6/1to7/1" sampledSeconds="1005.59" traveltime="50.00" overlapTraveltime="50.25" density="17.10" occupancy="8.55" waitingTime="0.00" speed="19.60" departed="0" arrived="0" entered="20" left="20" laneChangedFrom="0" laneChangedTo="0"/>
        <edge id="7/1to8/1" sampledSeconds="1005.06" traveltime="50.00" overlapTraveltime="50.25" density="17.09" occupancy="8.55" waitingTime="0.00" speed="19.60" departed="0" arrived="0" entered="20" left="20" laneChangedFrom="0" laneChangedTo="0"/>
        <edge id="8/1to9/1" sampledSeconds="677.65" traveltime="50.00" overlapTraveltime="50.25" density="11.53" occupancy="5.76" waitingTime="0.00" speed="19.60" departed="0" arrived="0" entered="20" left="5" laneChangedFrom="0" laneChangedTo="0"/>
        <edge id="9/1to10/1" sampledSeconds="41.31" traveltime="50.00" overlapTraveltime="50.25" density="0.70" occupancy="0.35" waitingTime="0.00" speed="19.60" departed="0" arrived="0" entered="5" left="0" laneChangedFrom="0" laneChangedTo="0"/>
    </interval>
    <interval begin="420.00" end="480.00" id="dump_60">
        <edge id="1/1to2/1" sampledSeconds="1076.25" traveltime="53.27" overlapTraveltime="53.52" density="18.30" occupancy="9.15" waitingTime="0.00" speed="18.40" departed="20" arrived="0" entered="0" left="20" laneChangedFrom="0" laneChangedTo="0"/>
        <edge id="10/1to1/1" sampledSeconds="109.00" traveltime="52.20" overlapTraveltime="52.46" density="1.85" occupancy="0.93" waitingTime="0.00" speed="18.77" departed="0" arrived="0" entered="9" left="0" laneChangedFrom="0" laneChangedTo="0"/>
        <edge id="2/1to3/1" sampledSeconds="1005.21" traveltime="50.00" overlapTraveltime="50.25" density="17.10" occupancy="8.55" waitingTime="0.00" speed="19.60" departed="0" arrived="0" entered="20" left="20" laneChangedFrom="0" laneChangedTo="0"/>
        <edge id="3/1to4/1" sampledSeconds="1005.93" traveltime="50.00" overlapTraveltime="50.25" density="17.11" occupancy="8.55" waitingTime="0.00" speed="19.60" departed="0" arrived="0" entered="20" left="20" laneChangedFrom="0" laneChangedTo="0"/>
        <edge id="4/1to5/1" sampledSeconds="1005.40" traveltime="50.00" overlapTraveltime="50.25" density="17.10" occupancy="8.55" waitingTime="0.00" speed="19.60" departed="0" arrived="0" entered="20" left="20" laneChangedFrom="0" laneChangedTo="0"/>
        <edge id="5/1to6/1" sampledSeconds="1004.87" traveltime="50.00" overlapTraveltime="50.25" density="17.09" occupancy="8.55" waitingTime="0.00" speed="19.60" departed="0" arrived="0" entered="20" left="20" laneChangedFrom="0" laneChangedTo="0"/>
        <edge id="6/1to7/1" sampledSeconds="1005.59" traveltime="50.00" overlapTraveltime="50.25" density="17.10" occupancy="8.55" waitingTime="0.00" speed="19.60" departed="0" arrived="0" entered="20" left="20" laneChangedFrom="0" laneChangedTo="0"/>
        <edge id="7/1to8/1" sampledSeconds="1005.06" traveltime="50.00" overlapTraveltime="50.25" density="17.09" occupancy="8.55" waitingTime="0.00" speed="19.60" departed="0" arrived="0" entered="20" left="20" laneChangedFrom="0" laneChangedTo="0"/>
        <edge id="8/1to9/1" sampledSeconds="1005.78" traveltime="50.00" overlapTraveltime="50.25" density="17.11" occupancy="8.55" waitingTime="0.00" speed="19.60" departed="0" arrived="0" entered="20" left="20" laneChangedFrom="0" laneChangedTo="0"/>
        <edge id="9/1to10/1" sampledSeconds="807.24" traveltime="50.00" overlapTraveltime="50.25" density="13.73" occupancy="6.86" waitingTime="0.00" speed="19.60" departed="0" arrived="0" entered="20" left="9" laneChangedFrom="0" laneChangedTo="0"/>
    </interval>
    <interval begin="480.00" end="540.00" id="dump_60">
        <edge id="1/1to2/1" sampledSeconds="1080.58" traveltime="52.55" overlapTraveltime="52.80" density="18.38" occupancy="9.19" waitingTime="0.00" speed="18.65" departed="15" arrived="0" entered="7" left="20" laneChangedFrom="0" laneChangedTo="0"/>
        <edge id="10/1to1/1" sampledSeconds="1068.06" traveltime="62.79" overlapTraveltime="63.14" density="18.17" occupancy="9.08" waitingTime="0.00" speed="15.60" departed="0" arrived="0" entered="20" left="7" laneChangedFrom="0" laneChangedTo="0"/>
        <edge id="2/1to3/1" sampledSeconds="1005.21" traveltime="50.00" overlapTraveltime="50.25" density="17.10" occupancy="8.55" waitingTime="0.00" speed="19.60" departed="0" arrived="0" entered="20" left="20" laneChangedFrom="0" laneChangedTo="0"/>
        <edge id="3/1to4/1" sampledSeconds="1005.93" traveltime="50.00" overlapTraveltime="50.25" density="17.11" occupancy="8.55" waitingTime="0.00" speed="19.60" departed="0" arrived="0" entered="20" left="20" laneChangedFrom="0" laneChangedTo="0"/>
        <edge id="4/1to5/1" sampledSeconds="1005.40" traveltime="50.00" overlapTraveltime="50.25" density="17.10" occupancy="8.55" waitingTime="0.00" speed="19.60" departed="0" arrived="0" entered="20" left="20" laneChangedFrom="0" laneChangedTo="0"/>
        <edge id="5/1to6/1" sampledSeconds="1004.87" traveltime="50.00" overlapTraveltime="50.25" density="17.09" occupancy="8.55" waitingTime="0.00" speed="19.60" departed="0" arrived="0" entered="20" left="20" laneChangedFrom="0" laneChangedTo="0"/>
        <edge id="6/1to7/1" sampledSeconds="1005.59" traveltime="50.00" overlapTraveltime="50.25" density="17.10" occupancy="8.55" waitingTime="0.00" speed="19.60" departed="0" arrived="0" entered="20" left="20" laneChangedFrom="0" laneChangedTo="0"/>
        <edge id="7/1to8/1" sampledSeconds="1005.06" traveltime="50.00" overlapTraveltime="50.25" density="17.09" occupancy="8.55" waitingTime="0.00" speed="19.60" departed="0" arrived="0" entered="20" left="20" laneChangedFrom="0" laneChangedTo="0"/>
        <edge id="8/1to9/1" sampledSeconds="1005.78" traveltime="50.00" overlapTraveltime="50.25" density="17.11" occupancy="8.55" waitingTime="0.00" speed="19.60" departed="0" arrived="0" entered="20" left="20" laneChangedFrom="0" laneChangedTo="0"/>
        <edge id="9/1to10/1" sampledSeconds="1006.04" traveltime="50.04" overlapTraveltime="50.29" density="17.11" occupancy="8.56" waitingTime="0.00" speed="19.58" departed="0" arrived="0" entered="20" left="20" laneChangedFrom="0" laneChangedTo="0"/>
    </interval>
    <interval begin="540.00" end="600.00" id="dump_60">
        <edge id="1/1to2/1" sampledSeconds="1356.13" traveltime="50.00" overlapTraveltime="50.25" density="23.06" occupancy="11.53" waitingTime="0.00" speed="19.60" departed="0" arrived="0" entered="25" left="25" laneChangedFrom="0" laneChangedTo="0"/>
        <edge id="10/1to1/1" sampledSeconds="1065.96" traveltime="50.10" overlapTraveltime="50.36" density="18.13" occupancy="9.06" waitingTime="0.00" speed="19.56" departed="0" arrived="0" entered="20" left="25" laneChangedFrom="0" laneChangedTo="0"/>
        <edge id="2/1to3/1" sampledSeconds="1065.08" traveltime="50.00" overlapTraveltime="50.25" density="18.11" occupancy="9.06" waitingTime="0.00" speed="19.60" departed="0" arrived="0" entered="25" left="20" laneChangedFrom="0" laneChangedTo="0"/>
        <edge id="3/1to4/1" sampledSeconds="1005.93" traveltime="50.00" overlapTraveltime="50.25" density="17.11" occupancy="8.55" waitingTime="0.00" speed="19.60" departed="0" arrived="0" entered="20" left="20" laneChangedFrom="0" laneChangedTo="0"/>
        <edge id="4/1to5/1" sampledSeconds="1005.40" traveltime="50.00" overlapTraveltime="50.25" density="17.10" occupancy="8.55" waitingTime="0.00" speed="19.60" departed="0" arrived="0" entered="20" left="20" laneChangedFrom="0" laneChangedTo="0"/>
        <edge id="5/1to6/1" sampledSeconds="1004.87" traveltime="50.00" overlapTraveltime="50.25" density="17.09" occupancy="8.55" waitingTime="0.00" speed="19.60" departed="0" arrived="0" entered="20" left="20" laneChangedFrom="0" laneChangedTo="0"/>
        <edge id="6/1to7/1" sampledSeconds="1005.59" traveltime="50.00" overlapTraveltime="50.25" density="17.10" occupancy="8.55" waitingTime="0.00" speed="19.60" departed="0" arrived="0" entered="20" left="20" laneChangedFrom="0" laneChangedTo="0"/>
        <edge id="7/1to8/1" sampledSeconds="1005.06" traveltime="50.00" overlapTraveltime="50.25" density="17.09" occupancy="8.55" waitingTime="0.00" speed="19.60" departed="0" arrived="0" entered="20" left="20" laneChangedFrom="0" laneChangedTo="0"/>
        <edge id="8/1to9/1" sampledSeconds="1005.78" traveltime="50.00" overlapTraveltime="50.25" density="17.11" occupancy="8.55" waitingTime="0.00" speed="19.60" departed="0" arrived="0" entered="20" left="20" laneChangedFrom="0" laneChangedTo="0"/>
        <edge id="9/1to10/1" sampledSeconds="1005.24" traveltime="50.00" overlapTraveltime="50.25" density="17.10" occupancy="8.55" waitingTime="0.00" speed="19.60" departed="0" arrived="0" entered="20" left="20" laneChangedFrom="0" laneChangedTo="0"/>
    </interval>
    <interval begin="600.00" end="660.00" id="dump_60">
        <edge id="1/1to2/1" sampledSeconds="1029.25" traveltime="50.00" overlapTraveltime="50.25" density="17.51" occupancy="8.75" waitingTime="0.00" speed="19.60" departed="0" arrived="0" entered="20" left="23" laneChangedFrom="0" laneChangedTo="0"/>
        <edge id="10/1to1/1" sampledSeconds="1005.96" traveltime="50.00" overlapTraveltime="50.25" density="17.11" occupancy="8.55" waitingTime="0.00" speed="19.60" departed="0" arrived="0" entered="20" left="20" laneChangedFrom="0" laneChangedTo="0"/>
        <edge id="2/1to3/1" sampledSeconds="1330.86" traveltime="50.00" overlapTraveltime="50.25" density="22.63" occupancy="11.32" waitingTime="0.00" speed="19.60" departed="0" arrived="0" entered="23" left="27" laneChangedFrom="0" laneChangedTo="0"/>
        <edge id="3/1to4/1" sampledSeconds="1127.23" traveltime="50.00" overlapTraveltime="50.25" density="19.17" occupancy="9.59" waitingTime="0.00" speed="19.60" departed="0" arrived="0" entered="26" left="20" laneChangedFrom="0" laneChangedTo="0"/>
        <edge id="4/1to5/1" sampledSeconds="1005.40" traveltime="50.00" overlapTraveltime="50.25" density="17.10" occupancy="8.55" waitingTime="0.00" speed="19.60" departed="0" arrived="0" entered="20" left="20" laneChangedFrom="0" laneChangedTo="0"/>
        <edge id="5/1to6/1" sampledSeconds="1004.87" traveltime="50.00" overlapTraveltime="50.25" density="17.09" occupancy="8.55" waitingTime="0.00" speed="19.60" departed="0" arrived="0" entered="20" left="20" laneChangedFrom="0" laneChangedTo="0"/>
        <edge id="6/1to7/1" sampledSeconds="1005.59" traveltime="50.00" overlapTraveltime="50.25" density="17.10" occupancy="8.55" waitingTime="0.00" speed="19.60" departed="0" arrived="0" entered="20" left="20" laneChangedFrom="0" laneChangedTo="0"/>
        <edge id="7/1to8/1" sampledSeconds="1005.06" traveltime="50.00" overlapTraveltime="50.25" density="17.09" occupancy="8.55" waitingTime="0.00" speed="19.60" departed="0" arrived="0" entered="20" left="20" laneChangedFrom="0" laneChangedTo="0"/>
        <edge id="8/1to9/1" sampledSeconds="1005.78" traveltime="50.00" overlapTraveltime="50.25" density="17.11" occupancy="8.55" waitingTime="0.00" speed="19.60" departed="0" arrived="0" entered="20" left="20" laneChangedFrom="0" laneChangedTo="0"/>
        <edge id="9/1to10/1" sampledSeconds="1005.24" traveltime="50.00" overlapTraveltime="50.25" density="17.10" occupancy="8.55" waitingTime="0.00" speed="19.60" departed="0" arrived="0" entered="20" left="20" laneChangedFrom="0" laneChangedTo="0"/>
    </interval>
    <interval begin="660.00" end="720.00" id="dump_60">
        <edge id="1/1to2/1" sampledSeconds="1005.43" traveltime="50.00" overlapTraveltime="50.25" density="17.10" occupancy="8.55" waitingTime="0.00" speed="19.60" departed="0" arrived="0" entered="20" left="20" laneChangedFrom="0" laneChangedTo="0"/>
        <edge id="10/1to1/1" sampledSeconds="1005.96" traveltime="50.00" overlapTraveltime="50.25" density="17.11" occupancy="8.55" waitingTime="0.00" speed="19.60" departed="0" arrived="0" entered="20" left="20" laneChangedFrom="0" laneChangedTo="0"/>
        <edge id="2/1to3/1" sampledSeconds="1013.65" traveltime="50.00" overlapTraveltime="50.25" density="17.24" occupancy="8.62" waitingTime="0.00" speed="19.60" departed="0" arrived="0" entered="20" left="20" laneChangedFrom="0" laneChangedTo="0"/>
        <edge id="3/1to4/1" sampledSeconds="1275.78" traveltime="50.00" overlapTraveltime="50.25" density="21.70" occupancy="10.85" waitingTime="0.00" speed="19.60" departed="0" arrived="0" entered="21" left="27" laneChangedFrom="0" laneChangedTo="0"/>
        <edge id="4/1to5/1" sampledSeconds="1197.96" traveltime="50.00" overlapTraveltime="50.25" density="20.37" occupancy="10.19" waitingTime="0.00" speed="19.60" departed="0" arrived="0" entered="27" left="20" laneChangedFrom="0" laneChangedTo="0"/>
        <edge id="5/1to6/1" sampledSeconds="1004.87" traveltime="50.00" overlapTraveltime="50.25" density="17.09" occupancy="8.55" waitingTime="0.00" speed="19.60" departed="0" arrived="0" entered="20" left="20" laneChangedFrom="0" laneChangedTo="0"/>
        <edge id="6/1to7/1" sampledSeconds="1005.59" traveltime="50.00" overlapTraveltime="50.25" density="17.10" occupancy="8.55" waitingTime="0.00" speed="19.60" departed="0" arrived="0" entered="20" left="20" laneChangedFrom="0" laneChangedTo="0"/>
        <edge id="7/1to8/1" sampledSeconds="1005.06" traveltime="50.00" overlapTraveltime="50.25" density="17.09" occupancy="8.55" waitingTime="0.00" speed="19.60" departed="0" arrived="0" entered="20" left="20" laneChangedFrom="0" laneChangedTo="0"/>
        <edge id="8/1to9/1" sampledSeconds="1005.78" traveltime="50.00" overlapTraveltime="50.25" density="17.11" occupancy="8.55" waitingTime="0.00" speed="19.60" departed="0" arrived="0" entered="20" left="20" laneChangedFrom="0" laneChangedTo="0"/>
        <edge id="9/1to10/1" sampledSeconds="1005.24" traveltime="50.00" overlapTraveltime="50.25" density="17.10" occupancy="8.55" waitingTime="0.00" speed="19.60" departed="0" arrived="0" entered="20" left="20" laneChangedFrom="0" laneChangedTo="0"/>
    </interval>
    <interval begin="720.00" end="780.00" id="dump_60">
        <edge id="1/1to2/1" sampledSeconds="1005.43" traveltime="50.00" overlapTraveltime="50.25" density="17.10" occupancy="8.55" waitingTime="0.00" speed="19.60" departed="0" arrived="0" entered="20" left="20" laneChangedFrom="0" laneChangedTo="0"/>
        <edge id="10/1to1/1" sampledSeconds="1005.96" traveltime="50.00" overlapTraveltime="50.25" density="17.11" occupancy="8.55" waitingTime="0.00" speed="19.60" departed="0" arrived="0" entered="20" left="20" laneChangedFrom="0" laneChangedTo="0"/>
        <edge id="2/1to3/1" sampledSeconds="1006.15" traveltime="50.00" overlapTraveltime="50.25" density="17.11" occupancy="8.56" waitingTime="0.00" speed="19.60" departed="0" arrived="0" entered="20" left="20" laneChangedFrom="0" laneChangedTo="0"/>
        <edge id="3/1to4/1" sampledSeconds="1007.87" traveltime="50.00" overlapTraveltime="50.25" density="17.14" occupancy="8.57" waitingTime="0.00" speed="19.60" departed="0" arrived="0" entered="20" left="21" laneChangedFrom="0" laneChangedTo="0"/>
        <edge id="4/1to5/1" sampledSeconds="1205.70" traveltime="50.00" overlapTraveltime="50.25" density="20.51" occupancy="10.25" waitingTime="0.00" speed="19.60" departed="0" arrived="0" entered="21" left="28" laneChangedFrom="0" laneChangedTo="0"/>
        <edge id="5/1to6/1" sampledSeconds="1272.45" traveltime="50.00" overlapTraveltime="50.25" density="21.64" occupancy="10.82" waitingTime="0.00" speed="19.60" departed="0" arrived="0" entered="28" left="21" laneChangedFrom="0" laneChangedTo="0"/>
        <edge id="6/1to7/1" sampledSeconds="1006.19" traveltime="50.00" overlapTraveltime="50.25" density="17.11" occupancy="8.56" waitingTime="0.00" speed="19.60" departed="0" arrived="0" entered="21" left="20" laneChangedFrom="0" laneChangedTo="0"/>
        <edge id="7/1to8/1" sampledSeconds="1005.06" traveltime="50.00" overlapTraveltime="50.25" density="17.09" occupancy="8.55" waitingTime="0.00" speed="19.60" departed="0" arrived="0" entered="20" left="20" laneChangedFrom="0" laneChangedTo="0"/>
        <edge id="8/1to9/1" sampledSeconds="1005.78" traveltime="50.00" overlapTraveltime="50.25" density="17.11" occupancy="8.55" waitingTime="0.00" speed="19.60" departed="0" arrived="0" entered="20" left="20" laneChangedFrom="0" laneChangedTo="0"/>
        <edge id="9/1to10/1" sampledSeconds="1005.24" traveltime="50.00" overlapTraveltime="50.25" density="17.10" occupancy="8.55" waitingTime="0.00" speed="19.60" departed="0" arrived="0" entered="20" left="20" laneChangedFrom="0" laneChangedTo="0"/>
    </interval>
    <interval begin="780.00" end="840.00" id="dump_60">
        <edge id="1/1to2/1" sampledSeconds="1005.43" traveltime="50.00" overlapTraveltime="50.25" density="17.10" occupancy="8.55" waitingTime="0.00" speed="19.60" departed="0" arrived="0" entered="20" left="20" laneChangedFrom="0" laneChangedTo="0"/>
        <edge id="10/1to1/1" sampledSeconds="1005.96" traveltime="50.00" overlapTraveltime="50.25" density="17.11" occupancy="8.55" waitingTime="0.00" speed="19.60" departed="0" arrived="0" entered="20" left="20" laneChangedFrom="0" laneChangedTo="0"/>
        <edge id="2/1to3/1" sampledSeconds="1006.15" traveltime="50.00" overlapTraveltime="50.25" density="17.11" occupancy="8.56" waitingTime="0.00" speed="19.60" departed="0" arrived="0" entered="20" left="20" laneChangedFrom="0" laneChangedTo="0"/>
        <edge id="3/1to4/1" sampledSeconds="1005.62" traveltime="50.00" overlapTraveltime="50.25" density="17.10" occupancy="8.55" waitingTime="0.00" speed="19.60" departed="0" arrived="0" entered="20" left="20" laneChangedFrom="0" laneChangedTo="0"/>
        <edge id="4/1to5/1" sampledSeconds="1006.65" traveltime="50.00" overlapTraveltime="50.25" density="17.12" occupancy="8.56" waitingTime="0.00" speed="19.60" departed="0" arrived="0" entered="20" left="20" laneChangedFrom="0" laneChangedTo="0"/>
        <edge id="5/1to6/1" sampledSeconds="1130.95" traveltime="50.00" overlapTraveltime="50.25" density="19.24" occupancy="9.62" waitingTime="0.00" speed="19.60" departed="0" arrived="0" entered="20" left="27" laneChangedFrom="0" laneChangedTo="0"/>
        <edge id="6/1to7/1" sampledSeconds="1333.79" traveltime="50.00" overlapTraveltime="50.25" density="22.68" occupancy="11.34" waitingTime="0.00" speed="19.60" departed="0" arrived="0" entered="27" left="23" laneChangedFrom="0" laneChangedTo="0"/>
        <edge id="7/1to8/1" sampledSeconds="1021.41" traveltime="50.00" overlapTraveltime="50.25" density="17.37" occupancy="8.69" waitingTime="0.00" speed="19.60" departed="0" arrived="0" entered="23" left="20" laneChangedFrom="0" laneChangedTo="0"/>
        <edge id="8/1to9/1" sampledSeconds="1005.78" traveltime="50.00" overlapTraveltime="50.25" density="17.11" occupancy="8.55" waitingTime="0.00" speed="19.60" departed="0" arrived="0" entered="20" left="20" laneChangedFrom="0" laneChangedTo="0"/>
        <edge id="9/1to10/1" sampledSeconds="1005.24" traveltime="50.00" overlapTraveltime="50.25" density="17.10" occupancy="8.55" waitingTime="0.00" speed="19.60" departed="0" arrived="0" entered="20" left="20" laneChangedFrom="0" laneChangedTo="0"/>
    </interval>
    <interval begin="840.00" end="900.00" id="dump_60">
        <edge id="1/1to2/1" sampledSeconds="1005.43" traveltime="50.00" overlapTraveltime="50.25" density="17.10" occupancy="8.55" waitingTime="0.00" speed="19.60" departed="0" arrived="0" entered="20" left="20" laneChangedFrom="0" laneChangedTo="0"/>
        <edge id="10/1to1/1" sampledSeconds="1005.96" traveltime="50.00" overlapTraveltime="50.25" density="17.11" occupancy="8.55" waitingTime="0.00" speed="19.60" departed="0" arrived="0" entered="20" left="20" laneChangedFrom="0" laneChangedTo="0"/>
        <edge id="2/1to3/1" sampledSeconds="1006.15" traveltime="50.00" overlapTraveltime="50.25" density="17.11" occupancy="8.56" waitingTime="0.00" speed="19.60" departed="0" arrived="0" entered="20" left="20" laneChangedFrom="0" laneChangedTo="0"/>
        <edge id="3/1to4/1" sampledSeconds="1005.62" traveltime="50.00" overlapTraveltime="50.25" density="17.10" occupancy="8.55" waitingTime="0.00" speed="19.60" departed="0" arrived="0" entered="20" left="20" laneChangedFrom="0" laneChangedTo="0"/>