<?xml version="1.0" encoding="UTF-8"?>

<!-- generated on Mon Sep 12 13:12:31 2016 by SUMO Version dev-SVN-r21424
<?xml version="1.0" encoding="UTF-8"?>

<configuration xmlns:xsi="http://www.w3.org/2001/XMLSchema-instance" xsi:noNamespaceSchemaLocation="http://sumo.dlr.de/xsd/sumoConfiguration.xsd">

    <input>
        <net-file value="net2.net.xml"/>
        <route-files value="input_routes.rou.xml"/>
    </input>

    <output>
        <fcd-output value="fcd.xml"/>
        <tripinfo-output value="tripinfos.xml"/>
    </output>

    <time>
        <step-length value="0.2"/>
    </time>

    <processing>
        <step-method.ballistic value="true"/>
    </processing>

    <report>
        <xml-validation value="never"/>
        <no-step-log value="true"/>
    </report>

</configuration>
-->

<fcd-export xmlns:xsi="http://www.w3.org/2001/XMLSchema-instance" xsi:noNamespaceSchemaLocation="http://sumo.dlr.de/xsd/fcd_file.xsd">
    <timestep time="0.00">
        <vehicle id="overtaking" x="0.00" y="-1.65" angle="90.00" type="DEFAULT_VEHTYPE" speed="0.00" pos="0.00" lane="VODUGES_beg_0" slope="0.00"/>
        <vehicle id="stopped" x="40.00" y="-1.65" angle="90.00" type="DEFAULT_VEHTYPE" speed="0.00" pos="40.00" lane="VODUGES_beg_0" slope="0.00"/>
    </timestep>
    <timestep time="0.20">
        <vehicle id="overtaking" x="0.05" y="-1.65" angle="90.00" type="DEFAULT_VEHTYPE" speed="0.48" pos="0.05" lane="VODUGES_beg_0" slope="0.00"/>
        <vehicle id="stopped" x="40.05" y="-1.65" angle="90.00" type="DEFAULT_VEHTYPE" speed="0.47" pos="40.05" lane="VODUGES_beg_0" slope="0.00"/>
    </timestep>
    <timestep time="0.40">
        <vehicle id="overtaking" x="0.19" y="-1.65" angle="90.00" type="DEFAULT_VEHTYPE" speed="0.95" pos="0.19" lane="VODUGES_beg_0" slope="0.00"/>
        <vehicle id="stopped" x="40.19" y="-1.65" angle="90.00" type="DEFAULT_VEHTYPE" speed="0.99" pos="40.19" lane="VODUGES_beg_0" slope="0.00"/>
    </timestep>
    <timestep time="0.60">
        <vehicle id="overtaking" x="0.43" y="-1.65" angle="90.00" type="DEFAULT_VEHTYPE" speed="1.47" pos="0.43" lane="VODUGES_beg_0" slope="0.00"/>
        <vehicle id="stopped" x="40.43" y="-1.65" angle="90.00" type="DEFAULT_VEHTYPE" speed="1.42" pos="40.43" lane="VODUGES_beg_0" slope="0.00"/>
    </timestep>
    <timestep time="0.80">
        <vehicle id="overtaking" x="0.77" y="-1.65" angle="90.00" type="DEFAULT_VEHTYPE" speed="1.94" pos="0.77" lane="VODUGES_beg_0" slope="0.00"/>
        <vehicle id="stopped" x="40.76" y="-1.65" angle="90.00" type="DEFAULT_VEHTYPE" speed="1.80" pos="40.76" lane="VODUGES_beg_0" slope="0.00"/>
    </timestep>
    <timestep time="1.00">
        <vehicle id="overtaking" x="1.20" y="-1.65" angle="90.00" type="DEFAULT_VEHTYPE" speed="2.27" pos="1.20" lane="VODUGES_beg_0" slope="0.00"/>
        <vehicle id="stopped" x="41.15" y="-1.65" angle="90.00" type="DEFAULT_VEHTYPE" speed="2.19" pos="41.15" lane="VODUGES_beg_0" slope="0.00"/>
    </timestep>
    <timestep time="1.20">
        <vehicle id="overtaking" x="1.69" y="-1.65" angle="90.00" type="DEFAULT_VEHTYPE" speed="2.62" pos="1.69" lane="VODUGES_beg_0" slope="0.00"/>
        <vehicle id="stopped" x="41.64" y="-1.65" angle="90.00" type="DEFAULT_VEHTYPE" speed="2.71" pos="41.64" lane="VODUGES_beg_0" slope="0.00"/>
    </timestep>
    <timestep time="1.40">
        <vehicle id="overtaking" x="2.25" y="-1.65" angle="90.00" type="DEFAULT_VEHTYPE" speed="3.02" pos="2.25" lane="VODUGES_beg_0" slope="0.00"/>
        <vehicle id="stopped" x="42.23" y="-1.65" angle="90.00" type="DEFAULT_VEHTYPE" speed="3.11" pos="42.23" lane="VODUGES_beg_0" slope="0.00"/>
    </timestep>
    <timestep time="1.60">
        <vehicle id="overtaking" x="2.90" y="-1.65" angle="90.00" type="DEFAULT_VEHTYPE" speed="3.47" pos="2.90" lane="VODUGES_beg_0" slope="0.00"/>
        <vehicle id="stopped" x="42.88" y="-1.65" angle="90.00" type="DEFAULT_VEHTYPE" speed="3.48" pos="42.88" lane="VODUGES_beg_0" slope="0.00"/>
    </timestep>
    <timestep time="1.80">
        <vehicle id="overtaking" x="3.62" y="-1.65" angle="90.00" type="DEFAULT_VEHTYPE" speed="3.77" pos="3.62" lane="VODUGES_beg_0" slope="0.00"/>
        <vehicle id="stopped" x="43.59" y="-1.65" angle="90.00" type="DEFAULT_VEHTYPE" speed="3.55" pos="43.59" lane="VODUGES_beg_0" slope="0.00"/>
    </timestep>
    <timestep time="2.00">
        <vehicle id="overtaking" x="4.41" y="-1.65" angle="90.00" type="DEFAULT_VEHTYPE" speed="4.11" pos="4.41" lane="VODUGES_beg_0" slope="0.00"/>
        <vehicle id="stopped" x="44.21" y="-1.65" angle="90.00" type="DEFAULT_VEHTYPE" speed="2.65" pos="44.21" lane="VODUGES_beg_0" slope="0.00"/>
    </timestep>
    <timestep time="2.20">
        <vehicle id="overtaking" x="5.27" y="-1.65" angle="90.00" type="DEFAULT_VEHTYPE" speed="4.49" pos="5.27" lane="VODUGES_beg_0" slope="0.00"/>
        <vehicle id="stopped" x="44.65" y="-1.65" angle="90.00" type="DEFAULT_VEHTYPE" speed="1.77" pos="44.65" lane="VODUGES_beg_0" slope="0.00"/>
    </timestep>
    <timestep time="2.40">
        <vehicle id="overtaking" x="6.21" y="-1.65" angle="90.00" type="DEFAULT_VEHTYPE" speed="4.85" pos="6.21" lane="VODUGES_beg_0" slope="0.00"/>
        <vehicle id="stopped" x="44.91" y="-1.65" angle="90.00" type="DEFAULT_VEHTYPE" speed="0.87" pos="44.91" lane="VODUGES_beg_0" slope="0.00"/>
    </timestep>
    <timestep time="2.60">
        <vehicle id="overtaking" x="7.21" y="-1.65" angle="90.00" type="DEFAULT_VEHTYPE" speed="5.16" pos="7.21" lane="VODUGES_beg_0" slope="0.00"/>
        <vehicle id="stopped" x="45.00" y="-1.65" angle="90.00" type="DEFAULT_VEHTYPE" speed="0.01" pos="45.00" lane="VODUGES_beg_0" slope="0.00"/>
    </timestep>
    <timestep time="2.80">
        <vehicle id="overtaking" x="8.27" y="-1.65" angle="90.00" type="DEFAULT_VEHTYPE" speed="5.45" pos="8.27" lane="VODUGES_beg_0" slope="0.00"/>
        <vehicle id="stopped" x="45.00" y="-1.65" angle="90.00" type="DEFAULT_VEHTYPE" speed="0.00" pos="45.00" lane="VODUGES_beg_0" slope="0.00"/>
    </timestep>
    <timestep time="3.00">
        <vehicle id="overtaking" x="9.39" y="-1.65" angle="90.00" type="DEFAULT_VEHTYPE" speed="5.82" pos="9.39" lane="VODUGES_beg_0" slope="0.00"/>
        <vehicle id="stopped" x="45.00" y="-1.65" angle="90.00" type="DEFAULT_VEHTYPE" speed="0.00" pos="45.00" lane="VODUGES_beg_0" slope="0.00"/>
    </timestep>
    <timestep time="3.20">
        <vehicle id="overtaking" x="10.61" y="-1.65" angle="90.00" type="DEFAULT_VEHTYPE" speed="6.34" pos="10.61" lane="VODUGES_beg_0" slope="0.00"/>
        <vehicle id="stopped" x="45.00" y="-1.65" angle="90.00" type="DEFAULT_VEHTYPE" speed="0.00" pos="45.00" lane="VODUGES_beg_0" slope="0.00"/>
    </timestep>
    <timestep time="3.40">
        <vehicle id="overtaking" x="11.91" y="-1.65" angle="90.00" type="DEFAULT_VEHTYPE" speed="6.66" pos="11.91" lane="VODUGES_beg_0" slope="0.00"/>
        <vehicle id="stopped" x="45.00" y="-1.65" angle="90.00" type="DEFAULT_VEHTYPE" speed="0.00" pos="45.00" lane="VODUGES_beg_0" slope="0.00"/>
    </timestep>
    <timestep time="3.60">
        <vehicle id="overtaking" x="13.27" y="-1.65" angle="90.00" type="DEFAULT_VEHTYPE" speed="6.93" pos="13.27" lane="VODUGES_beg_0" slope="0.00"/>
        <vehicle id="stopped" x="45.00" y="-1.65" angle="90.00" type="DEFAULT_VEHTYPE" speed="0.00" pos="45.00" lane="VODUGES_beg_0" slope="0.00"/>
    </timestep>
    <timestep time="3.80">
        <vehicle id="overtaking" x="14.69" y="-1.65" angle="90.00" type="DEFAULT_VEHTYPE" speed="7.27" pos="14.69" lane="VODUGES_beg_0" slope="0.00"/>
        <vehicle id="stopped" x="45.00" y="-1.65" angle="90.00" type="DEFAULT_VEHTYPE" speed="0.00" pos="45.00" lane="VODUGES_beg_0" slope="0.00"/>
    </timestep>
    <timestep time="4.00">
        <vehicle id="overtaking" x="16.19" y="-1.65" angle="90.00" type="DEFAULT_VEHTYPE" speed="7.76" pos="16.19" lane="VODUGES_beg_0" slope="0.00"/>
        <vehicle id="stopped" x="45.00" y="-1.65" angle="90.00" type="DEFAULT_VEHTYPE" speed="0.00" pos="45.00" lane="VODUGES_beg_0" slope="0.00"/>
    </timestep>
    <timestep time="4.20">
        <vehicle id="overtaking" x="17.78" y="-1.65" angle="90.00" type="DEFAULT_VEHTYPE" speed="8.17" pos="17.78" lane="VODUGES_beg_0" slope="0.00"/>
        <vehicle id="stopped" x="45.00" y="-1.65" angle="90.00" type="DEFAULT_VEHTYPE" speed="0.00" pos="45.00" lane="VODUGES_beg_0" slope="0.00"/>
    </timestep>
    <timestep time="4.40">
        <vehicle id="overtaking" x="19.46" y="-1.65" angle="90.00" type="DEFAULT_VEHTYPE" speed="8.62" pos="19.46" lane="VODUGES_beg_0" slope="0.00"/>
        <vehicle id="stopped" x="45.00" y="-1.65" angle="90.00" type="DEFAULT_VEHTYPE" speed="0.00" pos="45.00" lane="VODUGES_beg_0" slope="0.00"/>
    </timestep>
    <timestep time="4.60">
        <vehicle id="overtaking" x="21.23" y="-1.65" angle="90.00" type="DEFAULT_VEHTYPE" speed="9.10" pos="21.23" lane="VODUGES_beg_0" slope="0.00"/>
        <vehicle id="stopped" x="45.00" y="-1.65" angle="90.00" type="DEFAULT_VEHTYPE" speed="0.00" pos="45.00" lane="VODUGES_beg_0" slope="0.00"/>
    </timestep>
    <timestep time="4.80">
        <vehicle id="overtaking" x="23.10" y="-1.65" angle="90.00" type="DEFAULT_VEHTYPE" speed="9.55" pos="23.10" lane="VODUGES_beg_0" slope="0.00"/>
        <vehicle id="stopped" x="45.00" y="-1.65" angle="90.00" type="DEFAULT_VEHTYPE" speed="0.00" pos="45.00" lane="VODUGES_beg_0" slope="0.00"/>
    </timestep>
    <timestep time="5.00">
        <vehicle id="overtaking" x="25.06" y="-1.65" angle="90.00" type="DEFAULT_VEHTYPE" speed="10.05" pos="25.06" lane="VODUGES_beg_0" slope="0.00"/>
        <vehicle id="stopped" x="45.00" y="-1.65" angle="90.00" type="DEFAULT_VEHTYPE" speed="0.00" pos="45.00" lane="VODUGES_beg_0" slope="0.00"/>
    </timestep>
    <timestep time="5.20">
        <vehicle id="overtaking" x="27.01" y="-1.65" angle="90.00" type="DEFAULT_VEHTYPE" speed="9.52" pos="27.01" lane="VODUGES_beg_0" slope="0.00"/>
        <vehicle id="stopped" x="45.00" y="-1.65" angle="90.00" type="DEFAULT_VEHTYPE" speed="0.00" pos="45.00" lane="VODUGES_beg_0" slope="0.00"/>
    </timestep>
    <timestep time="5.40">
        <vehicle id="overtaking" x="28.83" y="-1.65" angle="90.00" type="DEFAULT_VEHTYPE" speed="8.64" pos="28.83" lane="VODUGES_beg_0" slope="0.00"/>
        <vehicle id="stopped" x="45.00" y="-1.65" angle="90.00" type="DEFAULT_VEHTYPE" speed="0.00" pos="45.00" lane="VODUGES_beg_0" slope="0.00"/>
    </timestep>
    <timestep time="5.60">
        <vehicle id="overtaking" x="30.47" y="-1.65" angle="90.00" type="DEFAULT_VEHTYPE" speed="7.74" pos="30.47" lane="VODUGES_beg_0" slope="0.00"/>
        <vehicle id="stopped" x="45.00" y="-1.65" angle="90.00" type="DEFAULT_VEHTYPE" speed="0.00" pos="45.00" lane="VODUGES_beg_0" slope="0.00"/>
    </timestep>
    <timestep time="5.80">
        <vehicle id="overtaking" x="31.94" y="-1.65" angle="90.00" type="DEFAULT_VEHTYPE" speed="6.94" pos="31.94" lane="VODUGES_beg_0" slope="0.00"/>
        <vehicle id="stopped" x="45.00" y="-1.65" angle="90.00" type="DEFAULT_VEHTYPE" speed="0.00" pos="45.00" lane="VODUGES_beg_0" slope="0.00"/>
    </timestep>
    <timestep time="6.00">
        <vehicle id="overtaking" x="33.24" y="-1.65" angle="90.00" type="DEFAULT_VEHTYPE" speed="6.14" pos="33.24" lane="VODUGES_beg_0" slope="0.00"/>
        <vehicle id="stopped" x="45.00" y="-1.65" angle="90.00" type="DEFAULT_VEHTYPE" speed="0.00" pos="45.00" lane="VODUGES_beg_0" slope="0.00"/>
    </timestep>
    <timestep time="6.20">
        <vehicle id="overtaking" x="34.38" y="1.65" angle="90.00" type="DEFAULT_VEHTYPE" speed="5.24" pos="10.87" lane="-VODUGES_beg_0" slope="0.00"/>
        <vehicle id="stopped" x="45.00" y="-1.65" angle="90.00" type="DEFAULT_VEHTYPE" speed="0.00" pos="45.00" lane="VODUGES_beg_0" slope="0.00"/>
    </timestep>
    <timestep time="6.40">
        <vehicle id="overtaking" x="35.47" y="1.65" angle="90.00" type="DEFAULT_VEHTYPE" speed="5.60" pos="9.78" lane="-VODUGES_beg_0" slope="0.00"/>
        <vehicle id="stopped" x="45.00" y="-1.65" angle="90.00" type="DEFAULT_VEHTYPE" speed="0.00" pos="45.00" lane="VODUGES_beg_0" slope="0.00"/>
    </timestep>
    <timestep time="6.60">
        <vehicle id="overtaking" x="36.64" y="1.65" angle="90.00" type="DEFAULT_VEHTYPE" speed="6.11" pos="8.61" lane="-VODUGES_beg_0" slope="0.00"/>
        <vehicle id="stopped" x="45.00" y="-1.65" angle="90.00" type="DEFAULT_VEHTYPE" speed="0.00" pos="45.00" lane="VODUGES_beg_0" slope="0.00"/>
    </timestep>
    <timestep time="6.80">
        <vehicle id="overtaking" x="37.90" y="1.65" angle="90.00" type="DEFAULT_VEHTYPE" speed="6.49" pos="7.35" lane="-VODUGES_beg_0" slope="0.00"/>
        <vehicle id="stopped" x="45.00" y="-1.65" angle="90.00" type="DEFAULT_VEHTYPE" speed="0.00" pos="45.00" lane="VODUGES_beg_0" slope="0.00"/>
    </timestep>
    <timestep time="7.00">
        <vehicle id="overtaking" x="39.24" y="1.65" angle="90.00" type="DEFAULT_VEHTYPE" speed="6.99" pos="6.01" lane="-VODUGES_beg_0" slope="0.00"/>
        <vehicle id="stopped" x="45.00" y="-1.65" angle="90.00" type="DEFAULT_VEHTYPE" speed="0.00" pos="45.00" lane="VODUGES_beg_0" slope="0.00"/>
    </timestep>
    <timestep time="7.20">
        <vehicle id="overtaking" x="40.67" y="1.65" angle="90.00" type="DEFAULT_VEHTYPE" speed="7.25" pos="4.58" lane="-VODUGES_beg_0" slope="0.00"/>
        <vehicle id="stopped" x="45.00" y="-1.65" angle="90.00" type="DEFAULT_VEHTYPE" speed="0.00" pos="45.00" lane="VODUGES_beg_0" slope="0.00"/>
    </timestep>
    <timestep time="7.40">
        <vehicle id="overtaking" x="42.16" y="1.65" angle="90.00" type="DEFAULT_VEHTYPE" speed="7.68" pos="3.09" lane="-VODUGES_beg_0" slope="0.00"/>
        <vehicle id="stopped" x="45.00" y="-1.65" angle="90.00" type="DEFAULT_VEHTYPE" speed="0.00" pos="45.00" lane="VODUGES_beg_0" slope="0.00"/>
    </timestep>
    <timestep time="7.60">
        <vehicle id="overtaking" x="43.74" y="1.65" angle="90.00" type="DEFAULT_VEHTYPE" speed="8.06" pos="1.51" lane="-VODUGES_beg_0" slope="0.00"/>
        <vehicle id="stopped" x="45.00" y="-1.65" angle="90.00" type="DEFAULT_VEHTYPE" speed="0.00" pos="45.00" lane="VODUGES_beg_0" slope="0.00"/>
    </timestep>
    <timestep time="7.80">
        <vehicle id="overtaking" x="45.39" y="1.65" angle="90.00" type="DEFAULT_VEHTYPE" speed="8.53" pos="9.36" lane=":C_3_0" slope="0.00"/>
        <vehicle id="stopped" x="45.00" y="-1.65" angle="90.00" type="DEFAULT_VEHTYPE" speed="0.00" pos="45.00" lane="VODUGES_beg_0" slope="0.00"/>
    </timestep>
    <timestep time="8.00">
        <vehicle id="overtaking" x="47.15" y="1.65" angle="90.00" type="DEFAULT_VEHTYPE" speed="9.03" pos="7.60" lane=":C_3_0" slope="0.00"/>
        <vehicle id="stopped" x="45.00" y="-1.65" angle="90.00" type="DEFAULT_VEHTYPE" speed="0.00" pos="45.00" lane="VODUGES_beg_0" slope="0.00"/>
    </timestep>
    <timestep time="8.20">
        <vehicle id="overtaking" x="49.00" y="1.65" angle="90.00" type="DEFAULT_VEHTYPE" speed="9.46" pos="5.75" lane=":C_3_0" slope="0.00"/>
        <vehicle id="stopped" x="45.00" y="-1.65" angle="90.00" type="DEFAULT_VEHTYPE" speed="0.00" pos="45.00" lane="VODUGES_beg_0" slope="0.00"/>
    </timestep>
    <timestep time="8.40">
        <vehicle id="overtaking" x="50.94" y="1.65" angle="90.00" type="DEFAULT_VEHTYPE" speed="9.92" pos="3.81" lane=":C_3_0" slope="0.00"/>
        <vehicle id="stopped" x="45.00" y="-1.65" angle="90.00" type="DEFAULT_VEHTYPE" speed="0.00" pos="45.00" lane="VODUGES_beg_0" slope="0.00"/>
    </timestep>
    <timestep time="8.60">
        <vehicle id="overtaking" x="52.96" y="1.65" angle="90.00" type="DEFAULT_VEHTYPE" speed="10.33" pos="1.79" lane=":C_3_0" slope="0.00"/>
        <vehicle id="stopped" x="45.00" y="-1.65" angle="90.00" type="DEFAULT_VEHTYPE" speed="0.00" pos="45.00" lane="VODUGES_beg_0" slope="0.00"/>
    </timestep>
    <timestep time="8.80">
        <vehicle id="overtaking" x="55.07" y="-1.65" angle="90.00" type="DEFAULT_VEHTYPE" speed="10.75" pos="0.32" lane="VODUGES_end_0" slope="0.00"/>
        <vehicle id="stopped" x="45.00" y="-1.65" angle="90.00" type="DEFAULT_VEHTYPE" speed="0.00" pos="45.00" lane="VODUGES_beg_0" slope="0.00"/>
    </timestep>
    <timestep time="9.00">
        <vehicle id="overtaking" x="57.25" y="-1.65" angle="90.00" type="DEFAULT_VEHTYPE" speed="11.06" pos="2.50" lane="VODUGES_end_0" slope="0.00"/>
        <vehicle id="stopped" x="45.00" y="-1.65" angle="90.00" type="DEFAULT_VEHTYPE" speed="0.00" pos="45.00" lane="VODUGES_beg_0" slope="0.00"/>
    </timestep>
    <timestep time="9.20">
        <vehicle id="overtaking" x="59.50" y="-1.65" angle="90.00" type="DEFAULT_VEHTYPE" speed="11.47" pos="4.75" lane="VODUGES_end_0" slope="0.00"/>
        <vehicle id="stopped" x="45.00" y="-1.65" angle="90.00" type="DEFAULT_VEHTYPE" speed="0.00" pos="45.00" lane="VODUGES_beg_0" slope="0.00"/>
    </timestep>
    <timestep time="9.40">
        <vehicle id="overtaking" x="61.82" y="-1.65" angle="90.00" type="DEFAULT_VEHTYPE" speed="11.73" pos="7.07" lane="VODUGES_end_0" slope="0.00"/>
        <vehicle id="stopped" x="45.00" y="-1.65" angle="90.00" type="DEFAULT_VEHTYPE" speed="0.00" pos="45.00" lane="VODUGES_beg_0" slope="0.00"/>
    </timestep>
    <timestep time="9.60">
        <vehicle id="overtaking" x="64.21" y="-1.65" angle="90.00" type="DEFAULT_VEHTYPE" speed="12.17" pos="9.46" lane="VODUGES_end_0" slope="0.00"/>
        <vehicle id="stopped" x="45.00" y="-1.65" angle="90.00" type="DEFAULT_VEHTYPE" speed="0.00" pos="45.00" lane="VODUGES_beg_0" slope="0.00"/>
    </timestep>
    <timestep time="9.80">
        <vehicle id="overtaking" x="66.68" y="-1.65" angle="90.00" type="DEFAULT_VEHTYPE" speed="12.47" pos="11.93" lane="VODUGES_end_0" slope="0.00"/>
        <vehicle id="stopped" x="45.00" y="-1.65" angle="90.00" type="DEFAULT_VEHTYPE" speed="0.00" pos="45.00" lane="VODUGES_beg_0" slope="0.00"/>
    </timestep>
    <timestep time="10.00">
        <vehicle id="overtaking" x="69.20" y="-1.65" angle="90.00" type="DEFAULT_VEHTYPE" speed="12.75" pos="14.45" lane="VODUGES_end_0" slope="0.00"/>
        <vehicle id="stopped" x="45.00" y="-1.65" angle="90.00" type="DEFAULT_VEHTYPE" speed="0.00" pos="45.00" lane="VODUGES_beg_0" slope="0.00"/>
    </timestep>
    <timestep time="10.20">
        <vehicle id="overtaking" x="71.79" y="-1.65" angle="90.00" type="DEFAULT_VEHTYPE" speed="13.16" pos="17.04" lane="VODUGES_end_0" slope="0.00"/>
        <vehicle id="stopped" x="45.00" y="-1.65" angle="90.00" type="DEFAULT_VEHTYPE" speed="0.00" pos="45.00" lane="VODUGES_beg_0" slope="0.00"/>
    </timestep>
    <timestep time="10.40">
        <vehicle id="overtaking" x="74.46" y="-1.65" angle="90.00" type="DEFAULT_VEHTYPE" speed="13.56" pos="19.71" lane="VODUGES_end_0" slope="0.00"/>
        <vehicle id="stopped" x="45.00" y="-1.65" angle="90.00" type="DEFAULT_VEHTYPE" speed="0.00" pos="45.00" lane="VODUGES_beg_0" slope="0.00"/>
    </timestep>
    <timestep time="10.60">
        <vehicle id="overtaking" x="77.19" y="-1.65" angle="90.00" type="DEFAULT_VEHTYPE" speed="13.74" pos="22.44" lane="VODUGES_end_0" slope="0.00"/>
        <vehicle id="stopped" x="45.00" y="-1.65" angle="90.00" type="DEFAULT_VEHTYPE" speed="0.00" pos="45.00" lane="VODUGES_beg_0" slope="0.00"/>
    </timestep>
    <timestep time="10.80">
        <vehicle id="overtaking" x="79.94" y="-1.65" angle="90.00" type="DEFAULT_VEHTYPE" speed="13.81" pos="25.19" lane="VODUGES_end_0" slope="0.00"/>
        <vehicle id="stopped" x="45.00" y="-1.65" angle="90.00" type="DEFAULT_VEHTYPE" speed="0.00" pos="45.00" lane="VODUGES_beg_0" slope="0.00"/>
    </timestep>
    <timestep time="11.00">
        <vehicle id="overtaking" x="82.71" y="-1.65" angle="90.00" type="DEFAULT_VEHTYPE" speed="13.80" pos="27.96" lane="VODUGES_end_0" slope="0.00"/>
        <vehicle id="stopped" x="45.00" y="-1.65" angle="90.00" type="DEFAULT_VEHTYPE" speed="0.00" pos="45.00" lane="VODUGES_beg_0" slope="0.00"/>
    </timestep>
    <timestep time="11.20">
        <vehicle id="overtaking" x="85.47" y="-1.65" angle="90.00" type="DEFAULT_VEHTYPE" speed="13.86" pos="30.72" lane="VODUGES_end_0" slope="0.00"/>
        <vehicle id="stopped" x="45.00" y="-1.65" angle="90.00" type="DEFAULT_VEHTYPE" speed="0.00" pos="45.00" lane="VODUGES_beg_0" slope="0.00"/>
    </timestep>
    <timestep time="11.40">
        <vehicle id="overtaking" x="88.23" y="-1.65" angle="90.00" type="DEFAULT_VEHTYPE" speed="13.72" pos="33.48" lane="VODUGES_end_0" slope="0.00"/>
        <vehicle id="stopped" x="45.00" y="-1.65" angle="90.00" type="DEFAULT_VEHTYPE" speed="0.00" pos="45.00" lane="VODUGES_beg_0" slope="0.00"/>
    </timestep>
    <timestep time="11.60">
        <vehicle id="overtaking" x="90.98" y="-1.65" angle="90.00" type="DEFAULT_VEHTYPE" speed="13.82" pos="36.23" lane="VODUGES_end_0" slope="0.00"/>
        <vehicle id="stopped" x="45.00" y="-1.65" angle="90.00" type="DEFAULT_VEHTYPE" speed="0.00" pos="45.00" lane="VODUGES_beg_0" slope="0.00"/>
    </timestep>
    <timestep time="11.80">
        <vehicle id="overtaking" x="93.75" y="-1.65" angle="90.00" type="DEFAULT_VEHTYPE" speed="13.86" pos="39.00" lane="VODUGES_end_0" slope="0.00"/>
        <vehicle id="stopped" x="45.00" y="-1.65" angle="90.00" type="DEFAULT_VEHTYPE" speed="0.00" pos="45.00" lane="VODUGES_beg_0" slope="0.00"/>
    </timestep>
    <timestep time="12.00">
        <vehicle id="overtaking" x="96.52" y="-1.65" angle="90.00" type="DEFAULT_VEHTYPE" speed="13.85" pos="41.77" lane="VODUGES_end_0" slope="0.00"/>
        <vehicle id="stopped" x="45.00" y="-1.65" angle="90.00" type="DEFAULT_VEHTYPE" speed="0.00" pos="45.00" lane="VODUGES_beg_0" slope="0.00"/>
    </timestep>
    <timestep time="12.20">
        <vehicle id="overtaking" x="99.29" y="-1.65" angle="90.00" type="DEFAULT_VEHTYPE" speed="13.79" pos="44.54" lane="VODUGES_end_0" slope="0.00"/>
        <vehicle id="stopped" x="45.00" y="-1.65" angle="90.00" type="DEFAULT_VEHTYPE" speed="0.00" pos="45.00" lane="VODUGES_beg_0" slope="0.00"/>
    </timestep>
    <timestep time="12.40">
        <vehicle id="overtaking" x="102.05" y="-1.65" angle="90.00" type="DEFAULT_VEHTYPE" speed="13.88" pos="47.30" lane="VODUGES_end_0" slope="0.00"/>
        <vehicle id="stopped" x="45.00" y="-1.65" angle="90.00" type="DEFAULT_VEHTYPE" speed="0.00" pos="45.00" lane="VODUGES_beg_0" slope="0.00"/>
    </timestep>
    <timestep time="12.60">
        <vehicle id="overtaking" x="104.81" y="-1.65" angle="90.00" type="DEFAULT_VEHTYPE" speed="13.71" pos="50.06" lane="VODUGES_end_0" slope="0.00"/>
        <vehicle id="stopped" x="45.00" y="-1.65" angle="90.00" type="DEFAULT_VEHTYPE" speed="0.00" pos="45.00" lane="VODUGES_beg_0" slope="0.00"/>
    </timestep>
    <timestep time="12.80">
        <vehicle id="overtaking" x="107.55" y="-1.65" angle="90.00" type="DEFAULT_VEHTYPE" speed="13.67" pos="52.80" lane="VODUGES_end_0" slope="0.00"/>
        <vehicle id="stopped" x="45.00" y="-1.65" angle="90.00" type="DEFAULT_VEHTYPE" speed="0.00" pos="45.00" lane="VODUGES_beg_0" slope="0.00"/>
    </timestep>
    <timestep time="13.00">
        <vehicle id="overtaking" x="110.29" y="-1.65" angle="90.00" type="DEFAULT_VEHTYPE" speed="13.65" pos="55.54" lane="VODUGES_end_0" slope="0.00"/>
        <vehicle id="stopped" x="45.00" y="-1.65" angle="90.00" type="DEFAULT_VEHTYPE" speed="0.00" pos="45.00" lane="VODUGES_beg_0" slope="0.00"/>
    </timestep>
    <timestep time="13.20">
        <vehicle id="overtaking" x="113.02" y="-1.65" angle="90.00" type="DEFAULT_VEHTYPE" speed="13.72" pos="58.27" lane="VODUGES_end_0" slope="0.00"/>
        <vehicle id="stopped" x="45.00" y="-1.65" angle="90.00" type="DEFAULT_VEHTYPE" speed="0.00" pos="45.00" lane="VODUGES_beg_0" slope="0.00"/>
    </timestep>
    <timestep time="13.40">
        <vehicle id="overtaking" x="115.77" y="-1.65" angle="90.00" type="DEFAULT_VEHTYPE" speed="13.74" pos="61.02" lane="VODUGES_end_0" slope="0.00"/>
        <vehicle id="stopped" x="45.00" y="-1.65" angle="90.00" type="DEFAULT_VEHTYPE" speed="0.00" pos="45.00" lane="VODUGES_beg_0" slope="0.00"/>
    </timestep>
    <timestep time="13.60">
        <vehicle id="overtaking" x="118.52" y="-1.65" angle="90.00" type="DEFAULT_VEHTYPE" speed="13.79" pos="63.77" lane="VODUGES_end_0" slope="0.00"/>
        <vehicle id="stopped" x="45.00" y="-1.65" angle="90.00" type="DEFAULT_VEHTYPE" speed="0.00" pos="45.00" lane="VODUGES_beg_0" slope="0.00"/>
    </timestep>
    <timestep time="13.80">
        <vehicle id="overtaking" x="121.27" y="-1.65" angle="90.00" type="DEFAULT_VEHTYPE" speed="13.74" pos="66.52" lane="VODUGES_end_0" slope="0.00"/>
        <vehicle id="stopped" x="45.00" y="-1.65" angle="90.00" type="DEFAULT_VEHTYPE" speed="0.00" pos="45.00" lane="VODUGES_beg_0" slope="0.00"/>
    </timestep>
    <timestep time="14.00">
        <vehicle id="overtaking" x="124.03" y="-1.65" angle="90.00" type="DEFAULT_VEHTYPE" speed="13.86" pos="69.28" lane="VODUGES_end_0" slope="0.00"/>
        <vehicle id="stopped" x="45.00" y="-1.65" angle="90.00" type="DEFAULT_VEHTYPE" speed="0.00" pos="45.00" lane="VODUGES_beg_0" slope="0.00"/>
    </timestep>
    <timestep time="14.20">
        <vehicle id="overtaking" x="126.79" y="-1.65" angle="90.00" type="DEFAULT_VEHTYPE" speed="13.72" pos="72.04" lane="VODUGES_end_0" slope="0.00"/>
        <vehicle id="stopped" x="45.00" y="-1.65" angle="90.00" type="DEFAULT_VEHTYPE" speed="0.00" pos="45.00" lane="VODUGES_beg_0" slope="0.00"/>
    </timestep>
    <timestep time="14.40">
        <vehicle id="overtaking" x="129.53" y="-1.65" angle="90.00" type="DEFAULT_VEHTYPE" speed="13.64" pos="74.78" lane="VODUGES_end_0" slope="0.00"/>
        <vehicle id="stopped" x="45.00" y="-1.65" angle="90.00" type="DEFAULT_VEHTYPE" speed="0.00" pos="45.00" lane="VODUGES_beg_0" slope="0.00"/>
    </timestep>
    <timestep time="14.60">
        <vehicle id="overtaking" x="132.28" y="-1.65" angle="90.00" type="DEFAULT_VEHTYPE" speed="13.89" pos="77.53" lane="VODUGES_end_0" slope="0.00"/>
        <vehicle id="stopped" x="45.00" y="-1.65" angle="90.00" type="DEFAULT_VEHTYPE" speed="0.00" pos="45.00" lane="VODUGES_beg_0" slope="0.00"/>
    </timestep>
    <timestep time="14.80">
        <vehicle id="overtaking" x="135.04" y="-1.65" angle="90.00" type="DEFAULT_VEHTYPE" speed="13.66" pos="80.29" lane="VODUGES_end_0" slope="0.00"/>
        <vehicle id="stopped" x="45.00" y="-1.65" angle="90.00" type="DEFAULT_VEHTYPE" speed="0.00" pos="45.00" lane="VODUGES_beg_0" slope="0.00"/>
    </timestep>
    <timestep time="15.00">
        <vehicle id="overtaking" x="137.77" y="-1.65" angle="90.00" type="DEFAULT_VEHTYPE" speed="13.66" pos="83.02" lane="VODUGES_end_0" slope="0.00"/>
        <vehicle id="stopped" x="45.00" y="-1.65" angle="90.00" type="DEFAULT_VEHTYPE" speed="0.00" pos="45.00" lane="VODUGES_beg_0" slope="0.00"/>
    </timestep>
    <timestep time="15.20">
        <vehicle id="overtaking" x="140.51" y="-1.65" angle="90.00" type="DEFAULT_VEHTYPE" speed="13.80" pos="85.76" lane="VODUGES_end_0" slope="0.00"/>
        <vehicle id="stopped" x="45.00" y="-1.65" angle="90.00" type="DEFAULT_VEHTYPE" speed="0.00" pos="45.00" lane="VODUGES_beg_0" slope="0.00"/>
    </timestep>
    <timestep time="15.40">
        <vehicle id="overtaking" x="143.27" y="-1.65" angle="90.00" type="DEFAULT_VEHTYPE" speed="13.77" pos="88.52" lane="VODUGES_end_0" slope="0.00"/>
        <vehicle id="stopped" x="45.00" y="-1.65" angle="90.00" type="DEFAULT_VEHTYPE" speed="0.00" pos="45.00" lane="VODUGES_beg_0" slope="0.00"/>
    </timestep>
    <timestep time="15.60">
        <vehicle id="overtaking" x="146.04" y="-1.65" angle="90.00" type="DEFAULT_VEHTYPE" speed="13.89" pos="91.29" lane="VODUGES_end_0" slope="0.00"/>
        <vehicle id="stopped" x="45.00" y="-1.65" angle="90.00" type="DEFAULT_VEHTYPE" speed="0.00" pos="45.00" lane="VODUGES_beg_0" slope="0.00"/>
    </timestep>
    <timestep time="15.80">
        <vehicle id="overtaking" x="148.79" y="-1.65" angle="90.00" type="DEFAULT_VEHTYPE" speed="13.65" pos="94.04" lane="VODUGES_end_0" slope="0.00"/>
        <vehicle id="stopped" x="45.00" y="-1.65" angle="90.00" type="DEFAULT_VEHTYPE" speed="0.00" pos="45.00" lane="VODUGES_beg_0" slope="0.00"/>
    </timestep>
    <timestep time="16.00">
        <vehicle id="overtaking" x="151.53" y="-1.65" angle="90.00" type="DEFAULT_VEHTYPE" speed="13.76" pos="96.78" lane="VODUGES_end_0" slope="0.00"/>
        <vehicle id="stopped" x="45.00" y="-1.65" angle="90.00" type="DEFAULT_VEHTYPE" speed="0.00" pos="45.00" lane="VODUGES_beg_0" slope="0.00"/>
    </timestep>
    <timestep time="16.20">
        <vehicle id="overtaking" x="154.29" y="-1.65" angle="90.00" type="DEFAULT_VEHTYPE" speed="13.78" pos="99.54" lane="VODUGES_end_0" slope="0.00"/>
        <vehicle id="stopped" x="45.00" y="-1.65" angle="90.00" type="DEFAULT_VEHTYPE" speed="0.00" pos="45.00" lane="VODUGES_beg_0" slope="0.00"/>
    </timestep>
    <timestep time="16.40">
        <vehicle id="overtaking" x="157.03" y="-1.65" angle="90.00" type="DEFAULT_VEHTYPE" speed="13.67" pos="102.28" lane="VODUGES_end_0" slope="0.00"/>
        <vehicle id="stopped" x="45.00" y="-1.65" angle="90.00" type="DEFAULT_VEHTYPE" speed="0.00" pos="45.00" lane="VODUGES_beg_0" slope="0.00"/>
    </timestep>
    <timestep time="16.60">
        <vehicle id="overtaking" x="159.78" y="-1.65" angle="90.00" type="DEFAULT_VEHTYPE" speed="13.79" pos="105.03" lane="VODUGES_end_0" slope="0.00"/>
        <vehicle id="stopped" x="45.00" y="-1.65" angle="90.00" type="DEFAULT_VEHTYPE" speed="0.00" pos="45.00" lane="VODUGES_beg_0" slope="0.00"/>
    </timestep>
    <timestep time="16.80">
        <vehicle id="overtaking" x="162.53" y="-1.65" angle="90.00" type="DEFAULT_VEHTYPE" speed="13.76" pos="107.78" lane="VODUGES_end_0" slope="0.00"/>