<?xml version="1.0" encoding="UTF-8"?>

<!-- generated on Tue Sep 13 12:08:03 2016 by SUMO Version dev-SVN-r21424
<?xml version="1.0" encoding="UTF-8"?>

<configuration xmlns:xsi="http://www.w3.org/2001/XMLSchema-instance" xsi:noNamespaceSchemaLocation="http://sumo.dlr.de/xsd/sumoConfiguration.xsd">

    <input>
        <net-file value="net2.net.xml"/>
        <route-files value="input_routes.rou.xml"/>
    </input>

    <output>
        <fcd-output value="fcd.xml"/>
        <tripinfo-output value="tripinfos.xml"/>
    </output>

    <time>
        <step-length value="0.2"/>
    </time>

    <processing>
        <step-method.ballistic value="true"/>
    </processing>

    <report>
        <xml-validation value="never"/>
        <no-step-log value="true"/>
    </report>

</configuration>
-->

<fcd-export xmlns:xsi="http://www.w3.org/2001/XMLSchema-instance" xsi:noNamespaceSchemaLocation="http://sumo.dlr.de/xsd/fcd_file.xsd">
    <timestep time="0.00">
        <vehicle id="overtaking" x="0.00" y="-1.65" angle="90.00" type="DEFAULT_VEHTYPE" speed="0.00" pos="0.00" lane="VODUGES_beg_0" slope="0.00"/>
        <vehicle id="stopped" x="40.00" y="-1.65" angle="90.00" type="DEFAULT_VEHTYPE" speed="0.00" pos="40.00" lane="VODUGES_beg_0" slope="0.00"/>
    </timestep>
    <timestep time="0.20">
        <vehicle id="overtaking" x="0.05" y="-1.65" angle="90.00" type="DEFAULT_VEHTYPE" speed="0.48" pos="0.05" lane="VODUGES_beg_0" slope="0.00"/>
        <vehicle id="stopped" x="40.05" y="-1.65" angle="90.00" type="DEFAULT_VEHTYPE" speed="0.47" pos="40.05" lane="VODUGES_beg_0" slope="0.00"/>
    </timestep>
    <timestep time="0.40">
        <vehicle id="overtaking" x="0.19" y="-1.65" angle="90.00" type="DEFAULT_VEHTYPE" speed="0.95" pos="0.19" lane="VODUGES_beg_0" slope="0.00"/>
        <vehicle id="stopped" x="40.19" y="-1.65" angle="90.00" type="DEFAULT_VEHTYPE" speed="0.99" pos="40.19" lane="VODUGES_beg_0" slope="0.00"/>
    </timestep>
    <timestep time="0.60">
        <vehicle id="overtaking" x="0.43" y="-1.65" angle="90.00" type="DEFAULT_VEHTYPE" speed="1.47" pos="0.43" lane="VODUGES_beg_0" slope="0.00"/>
        <vehicle id="stopped" x="40.43" y="-1.65" angle="90.00" type="DEFAULT_VEHTYPE" speed="1.42" pos="40.43" lane="VODUGES_beg_0" slope="0.00"/>
    </timestep>
    <timestep time="0.80">
        <vehicle id="overtaking" x="0.77" y="-1.65" angle="90.00" type="DEFAULT_VEHTYPE" speed="1.94" pos="0.77" lane="VODUGES_beg_0" slope="0.00"/>
        <vehicle id="stopped" x="40.76" y="-1.65" angle="90.00" type="DEFAULT_VEHTYPE" speed="1.80" pos="40.76" lane="VODUGES_beg_0" slope="0.00"/>
    </timestep>
    <timestep time="1.00">
        <vehicle id="overtaking" x="1.20" y="-1.65" angle="90.00" type="DEFAULT_VEHTYPE" speed="2.27" pos="1.20" lane="VODUGES_beg_0" slope="0.00"/>
        <vehicle id="stopped" x="41.14" y="-1.65" angle="90.00" type="DEFAULT_VEHTYPE" speed="2.05" pos="41.14" lane="VODUGES_beg_0" slope="0.00"/>
    </timestep>
    <timestep time="1.20">
        <vehicle id="overtaking" x="1.69" y="-1.65" angle="90.00" type="DEFAULT_VEHTYPE" speed="2.62" pos="1.69" lane="VODUGES_beg_0" slope="0.00"/>
        <vehicle id="stopped" x="41.58" y="-1.65" angle="90.00" type="DEFAULT_VEHTYPE" speed="2.30" pos="41.58" lane="VODUGES_beg_0" slope="0.00"/>
    </timestep>
    <timestep time="1.40">
        <vehicle id="overtaking" x="2.25" y="-1.65" angle="90.00" type="DEFAULT_VEHTYPE" speed="3.02" pos="2.25" lane="VODUGES_beg_0" slope="0.00"/>
        <vehicle id="stopped" x="42.03" y="-1.65" angle="90.00" type="DEFAULT_VEHTYPE" speed="2.29" pos="42.03" lane="VODUGES_beg_0" slope="0.00"/>
    </timestep>
    <timestep time="1.60">
        <vehicle id="overtaking" x="2.90" y="-1.65" angle="90.00" type="DEFAULT_VEHTYPE" speed="3.47" pos="2.90" lane="VODUGES_beg_0" slope="0.00"/>
        <vehicle id="stopped" x="42.48" y="-1.65" angle="90.00" type="DEFAULT_VEHTYPE" speed="2.17" pos="42.48" lane="VODUGES_beg_0" slope="0.00"/>
    </timestep>
    <timestep time="1.80">
        <vehicle id="overtaking" x="3.62" y="-1.65" angle="90.00" type="DEFAULT_VEHTYPE" speed="3.77" pos="3.62" lane="VODUGES_beg_0" slope="0.00"/>
        <vehicle id="stopped" x="42.91" y="-1.65" angle="90.00" type="DEFAULT_VEHTYPE" speed="2.12" pos="42.91" lane="VODUGES_beg_0" slope="0.00"/>
    </timestep>
    <timestep time="2.00">
        <vehicle id="overtaking" x="4.41" y="-1.65" angle="90.00" type="DEFAULT_VEHTYPE" speed="4.11" pos="4.41" lane="VODUGES_beg_0" slope="0.00"/>
        <vehicle id="stopped" x="43.32" y="-1.65" angle="90.00" type="DEFAULT_VEHTYPE" speed="1.94" pos="43.32" lane="VODUGES_beg_0" slope="0.00"/>
    </timestep>
    <timestep time="2.20">
        <vehicle id="overtaking" x="5.27" y="-1.65" angle="90.00" type="DEFAULT_VEHTYPE" speed="4.49" pos="5.27" lane="VODUGES_beg_0" slope="0.00"/>
        <vehicle id="stopped" x="43.69" y="-1.65" angle="90.00" type="DEFAULT_VEHTYPE" speed="1.77" pos="43.69" lane="VODUGES_beg_0" slope="0.00"/>
    </timestep>
    <timestep time="2.40">
        <vehicle id="overtaking" x="6.21" y="-1.65" angle="90.00" type="DEFAULT_VEHTYPE" speed="4.85" pos="6.21" lane="VODUGES_beg_0" slope="0.00"/>
        <vehicle id="stopped" x="44.02" y="-1.65" angle="90.00" type="DEFAULT_VEHTYPE" speed="1.52" pos="44.02" lane="VODUGES_beg_0" slope="0.00"/>
    </timestep>
    <timestep time="2.60">
        <vehicle id="overtaking" x="7.21" y="-1.65" angle="90.00" type="DEFAULT_VEHTYPE" speed="5.16" pos="7.21" lane="VODUGES_beg_0" slope="0.00"/>
        <vehicle id="stopped" x="44.29" y="-1.65" angle="90.00" type="DEFAULT_VEHTYPE" speed="1.17" pos="44.29" lane="VODUGES_beg_0" slope="0.00"/>
    </timestep>
    <timestep time="2.80">
        <vehicle id="overtaking" x="8.28" y="-1.65" angle="90.00" type="DEFAULT_VEHTYPE" speed="5.57" pos="8.28" lane="VODUGES_beg_0" slope="0.00"/>
        <vehicle id="stopped" x="44.49" y="-1.65" angle="90.00" type="DEFAULT_VEHTYPE" speed="0.90" pos="44.49" lane="VODUGES_beg_0" slope="0.00"/>
    </timestep>
    <timestep time="3.00">
        <vehicle id="overtaking" x="9.44" y="-1.65" angle="90.00" type="DEFAULT_VEHTYPE" speed="6.03" pos="9.44" lane="VODUGES_beg_0" slope="0.00"/>
        <vehicle id="stopped" x="44.65" y="-1.65" angle="90.00" type="DEFAULT_VEHTYPE" speed="0.70" pos="44.65" lane="VODUGES_beg_0" slope="0.00"/>
    </timestep>
    <timestep time="3.20">
        <vehicle id="overtaking" x="10.69" y="-1.65" angle="90.00" type="DEFAULT_VEHTYPE" speed="6.47" pos="10.69" lane="VODUGES_beg_0" slope="0.00"/>
        <vehicle id="stopped" x="44.78" y="-1.65" angle="90.00" type="DEFAULT_VEHTYPE" speed="0.56" pos="44.78" lane="VODUGES_beg_0" slope="0.00"/>
    </timestep>
    <timestep time="3.40">
        <vehicle id="overtaking" x="12.03" y="-1.65" angle="90.00" type="DEFAULT_VEHTYPE" speed="6.95" pos="12.03" lane="VODUGES_beg_0" slope="0.00"/>
        <vehicle id="stopped" x="44.87" y="-1.65" angle="90.00" type="DEFAULT_VEHTYPE" speed="0.38" pos="44.87" lane="VODUGES_beg_0" slope="0.00"/>
    </timestep>
    <timestep time="3.60">
        <vehicle id="overtaking" x="13.47" y="-1.65" angle="90.00" type="DEFAULT_VEHTYPE" speed="7.46" pos="13.47" lane="VODUGES_beg_0" slope="0.00"/>
        <vehicle id="stopped" x="44.94" y="-1.65" angle="90.00" type="DEFAULT_VEHTYPE" speed="0.24" pos="44.94" lane="VODUGES_beg_0" slope="0.00"/>
    </timestep>
    <timestep time="3.80">
        <vehicle id="overtaking" x="15.01" y="-1.65" angle="90.00" type="DEFAULT_VEHTYPE" speed="7.90" pos="15.01" lane="VODUGES_beg_0" slope="0.00"/>
        <vehicle id="stopped" x="44.97" y="-1.65" angle="90.00" type="DEFAULT_VEHTYPE" speed="0.14" pos="44.97" lane="VODUGES_beg_0" slope="0.00"/>
    </timestep>
    <timestep time="4.00">
        <vehicle id="overtaking" x="16.64" y="-1.65" angle="90.00" type="DEFAULT_VEHTYPE" speed="8.38" pos="16.64" lane="VODUGES_beg_0" slope="0.00"/>
        <vehicle id="stopped" x="44.99" y="-1.65" angle="90.00" type="DEFAULT_VEHTYPE" speed="0.06" pos="44.99" lane="VODUGES_beg_0" slope="0.00"/>
    </timestep>
    <timestep time="4.20">
        <vehicle id="overtaking" x="18.34" y="-1.65" angle="90.00" type="DEFAULT_VEHTYPE" speed="8.64" pos="18.34" lane="VODUGES_beg_0" slope="0.00"/>
        <vehicle id="stopped" x="45.00" y="-1.65" angle="90.00" type="DEFAULT_VEHTYPE" speed="0.00" pos="45.00" lane="VODUGES_beg_0" slope="0.00"/>
    </timestep>
    <timestep time="4.40">
        <vehicle id="overtaking" x="20.08" y="-1.65" angle="90.00" type="DEFAULT_VEHTYPE" speed="8.75" pos="20.08" lane="VODUGES_beg_0" slope="0.00"/>
        <vehicle id="stopped" x="45.00" y="-1.65" angle="90.00" type="DEFAULT_VEHTYPE" speed="0.00" pos="45.00" lane="VODUGES_beg_0" slope="0.00"/>
    </timestep>
    <timestep time="4.60">
        <vehicle id="overtaking" x="21.83" y="-1.65" angle="90.00" type="DEFAULT_VEHTYPE" speed="8.72" pos="21.83" lane="VODUGES_beg_0" slope="0.00"/>
        <vehicle id="stopped" x="45.00" y="-1.65" angle="90.00" type="DEFAULT_VEHTYPE" speed="0.00" pos="45.00" lane="VODUGES_beg_0" slope="0.00"/>
    </timestep>
    <timestep time="4.80">
        <vehicle id="overtaking" x="23.55" y="-1.65" angle="90.00" type="DEFAULT_VEHTYPE" speed="8.53" pos="23.55" lane="VODUGES_beg_0" slope="0.00"/>
        <vehicle id="stopped" x="45.00" y="-1.65" angle="90.00" type="DEFAULT_VEHTYPE" speed="0.00" pos="45.00" lane="VODUGES_beg_0" slope="0.00"/>
    </timestep>
    <timestep time="5.00">
        <vehicle id="overtaking" x="25.23" y="-1.65" angle="90.00" type="DEFAULT_VEHTYPE" speed="8.27" pos="25.23" lane="VODUGES_beg_0" slope="0.00"/>
        <vehicle id="stopped" x="45.00" y="-1.65" angle="90.00" type="DEFAULT_VEHTYPE" speed="0.00" pos="45.00" lane="VODUGES_beg_0" slope="0.00"/>
    </timestep>
    <timestep time="5.20">
        <vehicle id="overtaking" x="26.83" y="-1.65" angle="90.00" type="DEFAULT_VEHTYPE" speed="7.75" pos="26.83" lane="VODUGES_beg_0" slope="0.00"/>
        <vehicle id="stopped" x="45.00" y="-1.65" angle="90.00" type="DEFAULT_VEHTYPE" speed="0.00" pos="45.00" lane="VODUGES_beg_0" slope="0.00"/>
    </timestep>
    <timestep time="5.40">
        <vehicle id="overtaking" x="28.33" y="-1.65" angle="90.00" type="DEFAULT_VEHTYPE" speed="7.20" pos="28.33" lane="VODUGES_beg_0" slope="0.00"/>
        <vehicle id="stopped" x="45.00" y="-1.65" angle="90.00" type="DEFAULT_VEHTYPE" speed="0.00" pos="45.00" lane="VODUGES_beg_0" slope="0.00"/>
    </timestep>
    <timestep time="5.60">
        <vehicle id="overtaking" x="29.70" y="-1.65" angle="90.00" type="DEFAULT_VEHTYPE" speed="6.54" pos="29.70" lane="VODUGES_beg_0" slope="0.00"/>
        <vehicle id="stopped" x="45.00" y="-1.65" angle="90.00" type="DEFAULT_VEHTYPE" speed="0.00" pos="45.00" lane="VODUGES_beg_0" slope="0.00"/>
    </timestep>
    <timestep time="5.80">
        <vehicle id="overtaking" x="30.96" y="1.65" angle="90.00" type="DEFAULT_VEHTYPE" speed="6.01" pos="14.29" lane="-VODUGES_beg_0" slope="0.00"/>
        <vehicle id="stopped" x="45.00" y="-1.65" angle="90.00" type="DEFAULT_VEHTYPE" speed="0.00" pos="45.00" lane="VODUGES_beg_0" slope="0.00"/>
    </timestep>
    <timestep time="6.00">
        <vehicle id="overtaking" x="32.20" y="1.65" angle="90.00" type="DEFAULT_VEHTYPE" speed="6.38" pos="13.05" lane="-VODUGES_beg_0" slope="0.00"/>
        <vehicle id="stopped" x="45.00" y="-1.65" angle="90.00" type="DEFAULT_VEHTYPE" speed="0.00" pos="45.00" lane="VODUGES_beg_0" slope="0.00"/>
    </timestep>
    <timestep time="6.20">
        <vehicle id="overtaking" x="33.50" y="1.65" angle="90.00" type="DEFAULT_VEHTYPE" speed="6.65" pos="11.75" lane="-VODUGES_beg_0" slope="0.00"/>
        <vehicle id="stopped" x="45.00" y="-1.65" angle="90.00" type="DEFAULT_VEHTYPE" speed="0.00" pos="45.00" lane="VODUGES_beg_0" slope="0.00"/>
    </timestep>
    <timestep time="6.40">
        <vehicle id="overtaking" x="34.87" y="1.65" angle="90.00" type="DEFAULT_VEHTYPE" speed="7.00" pos="10.38" lane="-VODUGES_beg_0" slope="0.00"/>
        <vehicle id="stopped" x="45.00" y="-1.65" angle="90.00" type="DEFAULT_VEHTYPE" speed="0.00" pos="45.00" lane="VODUGES_beg_0" slope="0.00"/>
    </timestep>
    <timestep time="6.60">
        <vehicle id="overtaking" x="36.32" y="1.65" angle="90.00" type="DEFAULT_VEHTYPE" speed="7.52" pos="8.93" lane="-VODUGES_beg_0" slope="0.00"/>
        <vehicle id="stopped" x="45.00" y="-1.65" angle="90.00" type="DEFAULT_VEHTYPE" speed="0.00" pos="45.00" lane="VODUGES_beg_0" slope="0.00"/>
    </timestep>
    <timestep time="6.80">
        <vehicle id="overtaking" x="37.86" y="1.65" angle="90.00" type="DEFAULT_VEHTYPE" speed="7.90" pos="7.39" lane="-VODUGES_beg_0" slope="0.00"/>
        <vehicle id="stopped" x="45.00" y="-1.65" angle="90.00" type="DEFAULT_VEHTYPE" speed="0.00" pos="45.00" lane="VODUGES_beg_0" slope="0.00"/>
    </timestep>
    <timestep time="7.00">
        <vehicle id="overtaking" x="39.49" y="1.65" angle="90.00" type="DEFAULT_VEHTYPE" speed="8.40" pos="5.76" lane="-VODUGES_beg_0" slope="0.00"/>
        <vehicle id="stopped" x="45.00" y="-1.65" angle="90.00" type="DEFAULT_VEHTYPE" speed="0.00" pos="45.00" lane="VODUGES_beg_0" slope="0.00"/>
    </timestep>
    <timestep time="7.20">
        <vehicle id="overtaking" x="41.19" y="1.65" angle="90.00" type="DEFAULT_VEHTYPE" speed="8.66" pos="4.06" lane="-VODUGES_beg_0" slope="0.00"/>
        <vehicle id="stopped" x="45.00" y="-1.65" angle="90.00" type="DEFAULT_VEHTYPE" speed="0.00" pos="45.00" lane="VODUGES_beg_0" slope="0.00"/>
    </timestep>
    <timestep time="7.40">
        <vehicle id="overtaking" x="42.97" y="1.65" angle="90.00" type="DEFAULT_VEHTYPE" speed="9.09" pos="2.28" lane="-VODUGES_beg_0" slope="0.00"/>
        <vehicle id="stopped" x="45.00" y="-1.65" angle="90.00" type="DEFAULT_VEHTYPE" speed="0.00" pos="45.00" lane="VODUGES_beg_0" slope="0.00"/>
    </timestep>
    <timestep time="7.60">
        <vehicle id="overtaking" x="44.82" y="1.65" angle="90.00" type="DEFAULT_VEHTYPE" speed="9.46" pos="0.43" lane="-VODUGES_beg_0" slope="0.00"/>
        <vehicle id="stopped" x="45.00" y="-1.65" angle="90.00" type="DEFAULT_VEHTYPE" speed="0.00" pos="45.00" lane="VODUGES_beg_0" slope="0.00"/>
    </timestep>
    <timestep time="7.80">
        <vehicle id="overtaking" x="46.76" y="1.65" angle="90.00" type="DEFAULT_VEHTYPE" speed="9.94" pos="7.99" lane=":C_3_0" slope="0.00"/>
        <vehicle id="stopped" x="45.00" y="-1.65" angle="90.00" type="DEFAULT_VEHTYPE" speed="0.00" pos="45.00" lane="VODUGES_beg_0" slope="0.00"/>
    </timestep>
    <timestep time="8.00">
        <vehicle id="overtaking" x="48.80" y="1.65" angle="90.00" type="DEFAULT_VEHTYPE" speed="10.44" pos="5.95" lane=":C_3_0" slope="0.00"/>
        <vehicle id="stopped" x="45.00" y="-1.65" angle="90.00" type="DEFAULT_VEHTYPE" speed="0.00" pos="45.00" lane="VODUGES_beg_0" slope="0.00"/>
    </timestep>
    <timestep time="8.20">
        <vehicle id="overtaking" x="50.93" y="1.65" angle="90.00" type="DEFAULT_VEHTYPE" speed="10.86" pos="3.82" lane=":C_3_0" slope="0.00"/>
        <vehicle id="stopped" x="45.00" y="-1.65" angle="90.00" type="DEFAULT_VEHTYPE" speed="0.00" pos="45.00" lane="VODUGES_beg_0" slope="0.00"/>
    </timestep>
    <timestep time="8.40">
        <vehicle id="overtaking" x="53.15" y="1.65" angle="90.00" type="DEFAULT_VEHTYPE" speed="11.33" pos="1.60" lane=":C_3_0" slope="0.00"/>
        <vehicle id="stopped" x="45.00" y="-1.65" angle="90.00" type="DEFAULT_VEHTYPE" speed="0.00" pos="45.00" lane="VODUGES_beg_0" slope="0.00"/>
    </timestep>
    <timestep time="8.60">
        <vehicle id="overtaking" x="55.46" y="-1.65" angle="90.00" type="DEFAULT_VEHTYPE" speed="11.74" pos="0.71" lane="VODUGES_end_0" slope="0.00"/>
        <vehicle id="stopped" x="45.00" y="-1.65" angle="90.00" type="DEFAULT_VEHTYPE" speed="0.00" pos="45.00" lane="VODUGES_beg_0" slope="0.00"/>
    </timestep>
    <timestep time="8.80">
        <vehicle id="overtaking" x="57.85" y="-1.65" angle="90.00" type="DEFAULT_VEHTYPE" speed="12.16" pos="3.10" lane="VODUGES_end_0" slope="0.00"/>
        <vehicle id="stopped" x="45.00" y="-1.65" angle="90.00" type="DEFAULT_VEHTYPE" speed="0.00" pos="45.00" lane="VODUGES_beg_0" slope="0.00"/>
    </timestep>
    <timestep time="9.00">
        <vehicle id="overtaking" x="60.31" y="-1.65" angle="90.00" type="DEFAULT_VEHTYPE" speed="12.46" pos="5.56" lane="VODUGES_end_0" slope="0.00"/>
        <vehicle id="stopped" x="45.00" y="-1.65" angle="90.00" type="DEFAULT_VEHTYPE" speed="0.00" pos="45.00" lane="VODUGES_beg_0" slope="0.00"/>
    </timestep>
    <timestep time="9.20">
        <vehicle id="overtaking" x="62.84" y="-1.65" angle="90.00" type="DEFAULT_VEHTYPE" speed="12.88" pos="8.09" lane="VODUGES_end_0" slope="0.00"/>
        <vehicle id="stopped" x="45.00" y="-1.65" angle="90.00" type="DEFAULT_VEHTYPE" speed="0.00" pos="45.00" lane="VODUGES_beg_0" slope="0.00"/>
    </timestep>
    <timestep time="9.40">
        <vehicle id="overtaking" x="65.45" y="-1.65" angle="90.00" type="DEFAULT_VEHTYPE" speed="13.14" pos="10.70" lane="VODUGES_end_0" slope="0.00"/>
        <vehicle id="stopped" x="45.00" y="-1.65" angle="90.00" type="DEFAULT_VEHTYPE" speed="0.00" pos="45.00" lane="VODUGES_beg_0" slope="0.00"/>
    </timestep>
    <timestep time="9.60">
        <vehicle id="overtaking" x="68.12" y="-1.65" angle="90.00" type="DEFAULT_VEHTYPE" speed="13.58" pos="13.37" lane="VODUGES_end_0" slope="0.00"/>
        <vehicle id="stopped" x="45.00" y="-1.65" angle="90.00" type="DEFAULT_VEHTYPE" speed="0.00" pos="45.00" lane="VODUGES_beg_0" slope="0.00"/>
    </timestep>
    <timestep time="9.80">
        <vehicle id="overtaking" x="70.84" y="-1.65" angle="90.00" type="DEFAULT_VEHTYPE" speed="13.66" pos="16.09" lane="VODUGES_end_0" slope="0.00"/>
        <vehicle id="stopped" x="45.00" y="-1.65" angle="90.00" type="DEFAULT_VEHTYPE" speed="0.00" pos="45.00" lane="VODUGES_beg_0" slope="0.00"/>
    </timestep>
    <timestep time="10.00">
        <vehicle id="overtaking" x="73.57" y="-1.65" angle="90.00" type="DEFAULT_VEHTYPE" speed="13.65" pos="18.82" lane="VODUGES_end_0" slope="0.00"/>
        <vehicle id="stopped" x="45.00" y="-1.65" angle="90.00" type="DEFAULT_VEHTYPE" speed="0.00" pos="45.00" lane="VODUGES_beg_0" slope="0.00"/>
    </timestep>
    <timestep time="10.20">
        <vehicle id="overtaking" x="76.32" y="-1.65" angle="90.00" type="DEFAULT_VEHTYPE" speed="13.78" pos="21.57" lane="VODUGES_end_0" slope="0.00"/>
        <vehicle id="stopped" x="45.00" y="-1.65" angle="90.00" type="DEFAULT_VEHTYPE" speed="0.00" pos="45.00" lane="VODUGES_beg_0" slope="0.00"/>
    </timestep>
    <timestep time="10.40">
        <vehicle id="overtaking" x="79.07" y="-1.65" angle="90.00" type="DEFAULT_VEHTYPE" speed="13.77" pos="24.32" lane="VODUGES_end_0" slope="0.00"/>
        <vehicle id="stopped" x="45.00" y="-1.65" angle="90.00" type="DEFAULT_VEHTYPE" speed="0.00" pos="45.00" lane="VODUGES_beg_0" slope="0.00"/>
    </timestep>
    <timestep time="10.60">
        <vehicle id="overtaking" x="81.82" y="-1.65" angle="90.00" type="DEFAULT_VEHTYPE" speed="13.74" pos="27.07" lane="VODUGES_end_0" slope="0.00"/>
        <vehicle id="stopped" x="45.00" y="-1.65" angle="90.00" type="DEFAULT_VEHTYPE" speed="0.00" pos="45.00" lane="VODUGES_beg_0" slope="0.00"/>
    </timestep>
    <timestep time="10.80">
        <vehicle id="overtaking" x="84.58" y="-1.65" angle="90.00" type="DEFAULT_VEHTYPE" speed="13.81" pos="29.83" lane="VODUGES_end_0" slope="0.00"/>
        <vehicle id="stopped" x="45.00" y="-1.65" angle="90.00" type="DEFAULT_VEHTYPE" speed="0.00" pos="45.00" lane="VODUGES_beg_0" slope="0.00"/>
    </timestep>
    <timestep time="11.00">
        <vehicle id="overtaking" x="87.34" y="-1.65" angle="90.00" type="DEFAULT_VEHTYPE" speed="13.80" pos="32.59" lane="VODUGES_end_0" slope="0.00"/>
        <vehicle id="stopped" x="45.00" y="-1.65" angle="90.00" type="DEFAULT_VEHTYPE" speed="0.00" pos="45.00" lane="VODUGES_beg_0" slope="0.00"/>
    </timestep>
    <timestep time="11.20">
        <vehicle id="overtaking" x="90.11" y="-1.65" angle="90.00" type="DEFAULT_VEHTYPE" speed="13.86" pos="35.36" lane="VODUGES_end_0" slope="0.00"/>
        <vehicle id="stopped" x="45.00" y="-1.65" angle="90.00" type="DEFAULT_VEHTYPE" speed="0.00" pos="45.00" lane="VODUGES_beg_0" slope="0.00"/>
    </timestep>
    <timestep time="11.40">
        <vehicle id="overtaking" x="92.86" y="-1.65" angle="90.00" type="DEFAULT_VEHTYPE" speed="13.72" pos="38.11" lane="VODUGES_end_0" slope="0.00"/>
        <vehicle id="stopped" x="45.00" y="-1.65" angle="90.00" type="DEFAULT_VEHTYPE" speed="0.00" pos="45.00" lane="VODUGES_beg_0" slope="0.00"/>
    </timestep>
    <timestep time="11.60">
        <vehicle id="overtaking" x="95.62" y="-1.65" angle="90.00" type="DEFAULT_VEHTYPE" speed="13.82" pos="40.87" lane="VODUGES_end_0" slope="0.00"/>
        <vehicle id="stopped" x="45.00" y="-1.65" angle="90.00" type="DEFAULT_VEHTYPE" speed="0.00" pos="45.00" lane="VODUGES_beg_0" slope="0.00"/>
    </timestep>
    <timestep time="11.80">
        <vehicle id="overtaking" x="98.39" y="-1.65" angle="90.00" type="DEFAULT_VEHTYPE" speed="13.86" pos="43.64" lane="VODUGES_end_0" slope="0.00"/>
        <vehicle id="stopped" x="45.00" y="-1.65" angle="90.00" type="DEFAULT_VEHTYPE" speed="0.00" pos="45.00" lane="VODUGES_beg_0" slope="0.00"/>
    </timestep>
    <timestep time="12.00">
        <vehicle id="overtaking" x="101.16" y="-1.65" angle="90.00" type="DEFAULT_VEHTYPE" speed="13.85" pos="46.41" lane="VODUGES_end_0" slope="0.00"/>
        <vehicle id="stopped" x="45.00" y="-1.65" angle="90.00" type="DEFAULT_VEHTYPE" speed="0.00" pos="45.00" lane="VODUGES_beg_0" slope="0.00"/>
    </timestep>
    <timestep time="12.20">
        <vehicle id="overtaking" x="103.92" y="-1.65" angle="90.00" type="DEFAULT_VEHTYPE" speed="13.79" pos="49.17" lane="VODUGES_end_0" slope="0.00"/>
        <vehicle id="stopped" x="45.00" y="-1.65" angle="90.00" type="DEFAULT_VEHTYPE" speed="0.00" pos="45.00" lane="VODUGES_beg_0" slope="0.00"/>
    </timestep>
    <timestep time="12.40">
        <vehicle id="overtaking" x="106.69" y="-1.65" angle="90.00" type="DEFAULT_VEHTYPE" speed="13.88" pos="51.94" lane="VODUGES_end_0" slope="0.00"/>
        <vehicle id="stopped" x="45.00" y="-1.65" angle="90.00" type="DEFAULT_VEHTYPE" speed="0.00" pos="45.00" lane="VODUGES_beg_0" slope="0.00"/>
    </timestep>
    <timestep time="12.60">
        <vehicle id="overtaking" x="109.45" y="-1.65" angle="90.00" type="DEFAULT_VEHTYPE" speed="13.71" pos="54.70" lane="VODUGES_end_0" slope="0.00"/>
        <vehicle id="stopped" x="45.00" y="-1.65" angle="90.00" type="DEFAULT_VEHTYPE" speed="0.00" pos="45.00" lane="VODUGES_beg_0" slope="0.00"/>
    </timestep>
    <timestep time="12.80">
        <vehicle id="overtaking" x="112.19" y="-1.65" angle="90.00" type="DEFAULT_VEHTYPE" speed="13.67" pos="57.44" lane="VODUGES_end_0" slope="0.00"/>
        <vehicle id="stopped" x="45.00" y="-1.65" angle="90.00" type="DEFAULT_VEHTYPE" speed="0.00" pos="45.00" lane="VODUGES_beg_0" slope="0.00"/>
    </timestep>
    <timestep time="13.00">
        <vehicle id="overtaking" x="114.92" y="-1.65" angle="90.00" type="DEFAULT_VEHTYPE" speed="13.65" pos="60.17" lane="VODUGES_end_0" slope="0.00"/>
        <vehicle id="stopped" x="45.00" y="-1.65" angle="90.00" type="DEFAULT_VEHTYPE" speed="0.00" pos="45.00" lane="VODUGES_beg_0" slope="0.00"/>
    </timestep>
    <timestep time="13.20">
        <vehicle id="overtaking" x="117.66" y="-1.65" angle="90.00" type="DEFAULT_VEHTYPE" speed="13.72" pos="62.91" lane="VODUGES_end_0" slope="0.00"/>
        <vehicle id="stopped" x="45.00" y="-1.65" angle="90.00" type="DEFAULT_VEHTYPE" speed="0.00" pos="45.00" lane="VODUGES_beg_0" slope="0.00"/>
    </timestep>
    <timestep time="13.40">
        <vehicle id="overtaking" x="120.40" y="-1.65" angle="90.00" type="DEFAULT_VEHTYPE" speed="13.74" pos="65.65" lane="VODUGES_end_0" slope="0.00"/>
        <vehicle id="stopped" x="45.00" y="-1.65" angle="90.00" type="DEFAULT_VEHTYPE" speed="0.00" pos="45.00" lane="VODUGES_beg_0" slope="0.00"/>
    </timestep>
    <timestep time="13.60">
        <vehicle id="overtaking" x="123.15" y="-1.65" angle="90.00" type="DEFAULT_VEHTYPE" speed="13.79" pos="68.40" lane="VODUGES_end_0" slope="0.00"/>
        <vehicle id="stopped" x="45.00" y="-1.65" angle="90.00" type="DEFAULT_VEHTYPE" speed="0.00" pos="45.00" lane="VODUGES_beg_0" slope="0.00"/>
    </timestep>
    <timestep time="13.80">
        <vehicle id="overtaking" x="125.91" y="-1.65" angle="90.00" type="DEFAULT_VEHTYPE" speed="13.74" pos="71.16" lane="VODUGES_end_0" slope="0.00"/>
        <vehicle id="stopped" x="45.00" y="-1.65" angle="90.00" type="DEFAULT_VEHTYPE" speed="0.00" pos="45.00" lane="VODUGES_beg_0" slope="0.00"/>
    </timestep>
    <timestep time="14.00">
        <vehicle id="overtaking" x="128.67" y="-1.65" angle="90.00" type="DEFAULT_VEHTYPE" speed="13.86" pos="73.92" lane="VODUGES_end_0" slope="0.00"/>
        <vehicle id="stopped" x="45.00" y="-1.65" angle="90.00" type="DEFAULT_VEHTYPE" speed="0.00" pos="45.00" lane="VODUGES_beg_0" slope="0.00"/>
    </timestep>
    <timestep time="14.20">
        <vehicle id="overtaking" x="131.43" y="-1.65" angle="90.00" type="DEFAULT_VEHTYPE" speed="13.72" pos="76.68" lane="VODUGES_end_0" slope="0.00"/>
        <vehicle id="stopped" x="45.00" y="-1.65" angle="90.00" type="DEFAULT_VEHTYPE" speed="0.00" pos="45.00" lane="VODUGES_beg_0" slope="0.00"/>
    </timestep>
    <timestep time="14.40">
        <vehicle id="overtaking" x="134.16" y="-1.65" angle="90.00" type="DEFAULT_VEHTYPE" speed="13.64" pos="79.41" lane="VODUGES_end_0" slope="0.00"/>
        <vehicle id="stopped" x="45.00" y="-1.65" angle="90.00" type="DEFAULT_VEHTYPE" speed="0.00" pos="45.00" lane="VODUGES_beg_0" slope="0.00"/>
    </timestep>
    <timestep time="14.60">
        <vehicle id="overtaking" x="136.92" y="-1.65" angle="90.00" type="DEFAULT_VEHTYPE" speed="13.89" pos="82.17" lane="VODUGES_end_0" slope="0.00"/>
        <vehicle id="stopped" x="45.00" y="-1.65" angle="90.00" type="DEFAULT_VEHTYPE" speed="0.00" pos="45.00" lane="VODUGES_beg_0" slope="0.00"/>
    </timestep>
    <timestep time="14.80">
        <vehicle id="overtaking" x="139.67" y="-1.65" angle="90.00" type="DEFAULT_VEHTYPE" speed="13.66" pos="84.92" lane="VODUGES_end_0" slope="0.00"/>
        <vehicle id="stopped" x="45.00" y="-1.65" angle="90.00" type="DEFAULT_VEHTYPE" speed="0.00" pos="45.00" lane="VODUGES_beg_0" slope="0.00"/>
    </timestep>
    <timestep time="15.00">
        <vehicle id="overtaking" x="142.40" y="-1.65" angle="90.00" type="DEFAULT_VEHTYPE" speed="13.66" pos="87.65" lane="VODUGES_end_0" slope="0.00"/>
        <vehicle id="stopped" x="45.00" y="-1.65" angle="90.00" type="DEFAULT_VEHTYPE" speed="0.00" pos="45.00" lane="VODUGES_beg_0" slope="0.00"/>
    </timestep>
    <timestep time="15.20">
        <vehicle id="overtaking" x="145.15" y="-1.65" angle="90.00" type="DEFAULT_VEHTYPE" speed="13.80" pos="90.40" lane="VODUGES_end_0" slope="0.00"/>
        <vehicle id="stopped" x="45.00" y="-1.65" angle="90.00" type="DEFAULT_VEHTYPE" speed="0.00" pos="45.00" lane="VODUGES_beg_0" slope="0.00"/>
    </timestep>
    <timestep time="15.40">
        <vehicle id="overtaking" x="147.90" y="-1.65" angle="90.00" type="DEFAULT_VEHTYPE" speed="13.77" pos="93.15" lane="VODUGES_end_0" slope="0.00"/>
        <vehicle id="stopped" x="45.00" y="-1.65" angle="90.00" type="DEFAULT_VEHTYPE" speed="0.00" pos="45.00" lane="VODUGES_beg_0" slope="0.00"/>
    </timestep>
    <timestep time="15.60">
        <vehicle id="overtaking" x="150.67" y="-1.65" angle="90.00" type="DEFAULT_VEHTYPE" speed="13.89" pos="95.92" lane="VODUGES_end_0" slope="0.00"/>
        <vehicle id="stopped" x="45.00" y="-1.65" angle="90.00" type="DEFAULT_VEHTYPE" speed="0.00" pos="45.00" lane="VODUGES_beg_0" slope="0.00"/>
    </timestep>
    <timestep time="15.80">
        <vehicle id="overtaking" x="153.42" y="-1.65" angle="90.00" type="DEFAULT_VEHTYPE" speed="13.65" pos="98.67" lane="VODUGES_end_0" slope="0.00"/>
        <vehicle id="stopped" x="45.00" y="-1.65" angle="90.00" type="DEFAULT_VEHTYPE" speed="0.00" pos="45.00" lane="VODUGES_beg_0" slope="0.00"/>
    </timestep>
    <timestep time="16.00">
        <vehicle id="overtaking" x="156.16" y="-1.65" angle="90.00" type="DEFAULT_VEHTYPE" speed="13.76" pos="101.41" lane="VODUGES_end_0" slope="0.00"/>
        <vehicle id="stopped" x="45.00" y="-1.65" angle="90.00" type="DEFAULT_VEHTYPE" speed="0.00" pos="45.00" lane="VODUGES_beg_0" slope="0.00"/>
    </timestep>
    <timestep time="16.20">
        <vehicle id="overtaking" x="158.92" y="-1.65" angle="90.00" type="DEFAULT_VEHTYPE" speed="13.78" pos="104.17" lane="VODUGES_end_0" slope="0.00"/>
        <vehicle id="stopped" x="45.00" y="-1.65" angle="90.00" type="DEFAULT_VEHTYPE" speed="0.00" pos="45.00" lane="VODUGES_beg_0" slope="0.00"/>
    </timestep>
    <timestep time="16.40">
        <vehicle id="overtaking" x="161.66" y="-1.65" angle="90.00" type="DEFAULT_VEHTYPE" speed="13.67" pos="106.91" lane="VODUGES_end_0" slope="0.00"/>
        <vehicle id="stopped" x="45.00" y="-1.65" angle="90.00" type="DEFAULT_VEHTYPE" speed="0.00" pos="45.00" lane="VODUGES_beg_0" slope="0.00"/>
    </timestep>
    <timestep time="16.60">
        <vehicle id="overtaking" x="164.41" y="-1.65" angle="90.00" type="DEFAULT_VEHTYPE" speed="13.79" pos="109.66" lane="VODUGES_end_0" slope="0.00"/>
        <vehicle id="stopped" x="45.00" y="-1.65" angle="90.00" type="DEFAULT_VEHTYPE" speed="0.00" pos="45.00" lane="VODUGES_beg_0" slope="0.00"/>
    </timestep>
    <timestep time="16.80">
        <vehicle id="overtaking" x="167.17" y="-1.65" angle="90.00" type="DEFAULT_VEHTYPE" speed="13.76" pos="112.42" lane="VODUGES_end_0" slope="0.00"/>