<?xml version="1.0" encoding="UTF-8"?>

<!-- generated on Tue Apr  5 13:44:52 2016 by SUMO Version dev-SVN-r20343
<?xml version="1.0" encoding="UTF-8"?>

<configuration xmlns:xsi="http://www.w3.org/2001/XMLSchema-instance" xsi:noNamespaceSchemaLocation="http://sumo.dlr.de/xsd/sumoConfiguration.xsd">

    <input>
        <net-file value="net.net.xml"/>
        <route-files value="input_routes.rou.xml"/>
        <additional-files value="input_additional.add.xml,input_additional2.add.xml"/>
    </input>

    <time>
        <begin value="0"/>
        <end value="1000"/>
    </time>

    <report>
        <xml-validation value="never"/>
        <duration-log.disable value="true"/>
        <no-step-log value="true"/>
    </report>

</configuration>
-->

<meandata xmlns:xsi="http://www.w3.org/2001/XMLSchema-instance" xsi:noNamespaceSchemaLocation="http://sumo.dlr.de/xsd/meandata_file.xsd">
    <interval begin="0.00" end="25.00" id="dump_25">
        <edge id="beg" sampledSeconds="42.00" traveltime="26.56" density="3.37" occupancy="1.01" waitingTime="0.00" speed="18.77" departed="3" arrived="0" entered="0" left="1" laneChangedFrom="0" laneChangedTo="0"/>
    </interval>
    <interval begin="25.00" end="50.00" id="dump_25">
        <edge id="beg" sampledSeconds="58.23" traveltime="23.24" density="4.67" occupancy="1.40" waitingTime="0.00" speed="21.45" departed="2" arrived="0" entered="0" left="2" laneChangedFrom="0" laneChangedTo="0"/>
        <edge id="middle" sampledSeconds="44.13" traveltime="71.26" density="1.78" occupancy="0.53" waitingTime="0.00" speed="13.90" departed="0" arrived="0" entered="3" left="0" laneChangedFrom="0" laneChangedTo="0"/>
    </interval>
    <interval begin="50.00" end="75.00" id="dump_25">
        <edge id="beg" sampledSeconds="62.15" traveltime="23.91" density="4.99" occupancy="1.50" waitingTime="0.00" speed="20.86" departed="3" arrived="0" entered="0" left="3" laneChangedFrom="0" laneChangedTo="0"/>
        <edge id="middle" sampledSeconds="104.42" traveltime="71.26" density="4.22" occupancy="1.27" waitingTime="0.00" speed="13.90" departed="0" arrived="0" entered="2" left="0" laneChangedFrom="0" laneChangedTo="0"/>
    </interval>
    <interval begin="75.00" end="100.00" id="dump_25">
        <edge id="beg" sampledSeconds="58.23" traveltime="23.24" density="4.67" occupancy="1.40" waitingTime="0.00" speed="21.45" departed="2" arrived="0" entered="0" left="2" laneChangedFrom="0" laneChangedTo="0"/>
        <edge id="end" sampledSeconds="1.65" traveltime="43.10" density="0.13" occupancy="0.04" waitingTime="0.00" speed="11.57" departed="0" arrived="0" entered="1" left="0" laneChangedFrom="0" laneChangedTo="0"/>
        <edge id="middle" sampledSeconds="167.07" traveltime="71.88" density="6.75" occupancy="2.02" waitingTime="0.00" speed="13.78" departed="0" arrived="0" entered="3" left="1" laneChangedFrom="0" laneChangedTo="0"/>
    </interval>
    <interval begin="100.00" end="125.00" id="dump_25">
        <edge id="beg" sampledSeconds="62.15" traveltime="23.91" density="4.99" occupancy="1.50" waitingTime="0.00" speed="20.86" departed="3" arrived="0" entered="0" left="3" laneChangedFrom="0" laneChangedTo="0"/>
        <edge id="end" sampledSeconds="42.33" traveltime="20.85" density="3.40" occupancy="1.02" waitingTime="0.00" speed="23.91" departed="0" arrived="0" entered="2" left="1" laneChangedFrom="0" laneChangedTo="0"/>
        <edge id="middle" sampledSeconds="180.30" traveltime="72.42" density="7.28" occupancy="2.18" waitingTime="0.00" speed="13.68" departed="0" arrived="0" entered="2" left="2" laneChangedFrom="0" laneChangedTo="0"/>
        <edge id="rend" sampledSeconds="6.08" traveltime="17.99" density="0.49" occupancy="0.15" waitingTime="0.00" speed="27.80" departed="0" arrived="0" entered="1" left="0" laneChangedFrom="0" laneChangedTo="0"/>
    </interval>
    <interval begin="125.00" end="150.00" id="dump_25">
        <edge id="beg" sampledSeconds="58.23" traveltime="23.24" density="4.67" occupancy="1.40" waitingTime="0.00" speed="21.45" departed="2" arrived="0" entered="0" left="2" laneChangedFrom="0" laneChangedTo="0"/>
        <edge id="end" sampledSeconds="52.04" traveltime="20.08" density="4.18" occupancy="1.25" waitingTime="0.00" speed="24.83" departed="0" arrived="0" entered="3" left="3" laneChangedFrom="0" laneChangedTo="0"/>
        <edge id="middle" sampledSeconds="182.95" traveltime="72.97" density="7.39" occupancy="2.22" waitingTime="0.00" speed="13.57" departed="0" arrived="0" entered="3" left="3" laneChangedFrom="0" laneChangedTo="0"/>
        <edge id="rend" sampledSeconds="42.23" traveltime="17.99" density="3.38" occupancy="1.01" waitingTime="0.00" speed="27.80" departed="0" arrived="2" entered="3" left="0" laneChangedFrom="0" laneChangedTo="0"/>
    </interval>
    <interval begin="150.00" end="175.00" id="dump_25">
        <edge id="beg" sampledSeconds="62.15" traveltime="23.91" density="4.99" occupancy="1.50" waitingTime="0.00" speed="20.86" departed="3" arrived="0" entered="0" left="3" laneChangedFrom="0" laneChangedTo="0"/>
        <edge id="end" sampledSeconds="51.36" traveltime="20.27" density="4.12" occupancy="1.24" waitingTime="0.00" speed="24.59" departed="0" arrived="0" entered="2" left="2" laneChangedFrom="0" laneChangedTo="0"/>
        <edge id="middle" sampledSeconds="180.30" traveltime="72.42" density="7.28" occupancy="2.18" waitingTime="0.00" speed="13.68" departed="0" arrived="0" entered="2" left="2" laneChangedFrom="0" laneChangedTo="0"/>
        <edge id="rend" sampledSeconds="46.15" traveltime="17.99" density="3.69" occupancy="1.11" waitingTime="0.00" speed="27.80" departed="0" arrived="2" entered="2" left="0" laneChangedFrom="0" laneChangedTo="0"/>
    </interval>
    <interval begin="175.00" end="200.00" id="dump_25">
        <edge id="beg" sampledSeconds="58.23" traveltime="23.24" density="4.67" occupancy="1.40" waitingTime="0.00" speed="21.45" departed="2" arrived="0" entered="0" left="2" laneChangedFrom="0" laneChangedTo="0"/>
        <edge id="end" sampledSeconds="52.04" traveltime="20.08" density="4.18" occupancy="1.25" waitingTime="0.00" speed="24.83" departed="0" arrived="0" entered="3" left="3" laneChangedFrom="0" laneChangedTo="0"/>
        <edge id="middle" sampledSeconds="182.95" traveltime="72.97" density="7.39" occupancy="2.22" waitingTime="0.00" speed="13.57" departed="0" arrived="0" entered="3" left="3" laneChangedFrom="0" laneChangedTo="0"/>
        <edge id="rend" sampledSeconds="44.23" traveltime="17.99" density="3.54" occupancy="1.06" waitingTime="0.00" speed="27.80" departed="0" arrived="3" entered="3" left="0" laneChangedFrom="0" laneChangedTo="0"/>
    </interval>
    <interval begin="200.00" end="225.00" id="dump_25">
        <edge id="beg" sampledSeconds="64.62" traveltime="25.29" density="5.18" occupancy="1.56" waitingTime="0.00" speed="19.72" departed="3" arrived="0" entered="0" left="2" laneChangedFrom="0" laneChangedTo="0"/>
        <edge id="end" sampledSeconds="28.06" traveltime="18.83" density="2.25" occupancy="0.68" waitingTime="0.00" speed="26.48" departed="0" arrived="0" entered="0" left="2" laneChangedFrom="0" laneChangedTo="0"/>
        <edge id="middle" sampledSeconds="200.94" traveltime="319.20" density="8.11" occupancy="2.43" waitingTime="0.00" speed="3.10" departed="0" arrived="0" entered="2" left="0" laneChangedFrom="0" laneChangedTo="0"/>
        <edge id="rend" sampledSeconds="46.15" traveltime="17.99" density="3.69" occupancy="1.11" waitingTime="0.00" speed="27.80" departed="0" arrived="2" entered="2" left="0" laneChangedFrom="0" laneChangedTo="0"/>
    </interval>
    <interval begin="225.00" end="250.00" id="dump_25">
        <edge id="beg" sampledSeconds="61.92" traveltime="24.77" density="4.97" occupancy="1.49" waitingTime="0.00" speed="20.13" departed="2" arrived="0" entered="0" left="3" laneChangedFrom="0" laneChangedTo="0"/>
        <edge id="end" sampledSeconds="20.98" traveltime="21.00" density="1.68" occupancy="0.50" waitingTime="0.00" speed="23.74" departed="0" arrived="0" entered="1" left="0" laneChangedFrom="0" laneChangedTo="0"/>
        <edge id="middle" sampledSeconds="242.23" traveltime="353.32" density="9.78" occupancy="2.93" waitingTime="0.00" speed="2.80" departed="0" arrived="0" entered="3" left="1" laneChangedFrom="0" laneChangedTo="0"/>
        <edge id="rend" sampledSeconds="14.00" traveltime="17.99" density="1.12" occupancy="0.34" waitingTime="0.00" speed="27.80" departed="0" arrived="2" entered="0" left="0" laneChangedFrom="0" laneChangedTo="0"/>
    </interval>
    <interval begin="250.00" end="275.00" id="dump_25">
        <edge id="beg" sampledSeconds="64.62" traveltime="25.29" density="5.18" occupancy="1.56" waitingTime="0.00" speed="19.72" departed="3" arrived="0" entered="0" left="2" laneChangedFrom="0" laneChangedTo="0"/>
        <edge id="end" sampledSeconds="0.50" traveltime="17.93" density="0.04" occupancy="0.01" waitingTime="0.00" speed="27.80" departed="0" arrived="0" entered="0" left="1" laneChangedFrom="0" laneChangedTo="0"/>
        <edge id="middle" sampledSeconds="300.94" traveltime="353.75" density="12.15" occupancy="3.65" waitingTime="0.00" speed="2.80" departed="0" arrived="0" entered="2" left="0" laneChangedFrom="0" laneChangedTo="0"/>
        <edge id="rend" sampledSeconds="18.08" traveltime="17.99" density="1.45" occupancy="0.43" waitingTime="0.00" speed="27.80" departed="0" arrived="1" entered="1" left="0" laneChangedFrom="0" laneChangedTo="0"/>
    </interval>
    <interval begin="275.00" end="300.00" id="dump_25">
        <edge id="beg" sampledSeconds="61.92" traveltime="24.77" density="4.97" occupancy="1.49" waitingTime="0.00" speed="20.13" departed="2" arrived="0" entered="0" left="3" laneChangedFrom="0" laneChangedTo="0"/>
        <edge id="end" sampledSeconds="21.23" traveltime="20.71" density="1.70" occupancy="0.51" waitingTime="0.00" speed="24.08" departed="0" arrived="0" entered="1" left="1" laneChangedFrom="0" laneChangedTo="0"/>
        <edge id="middle" sampledSeconds="341.66" traveltime="353.03" density="13.80" occupancy="4.14" waitingTime="0.00" speed="2.81" departed="0" arrived="0" entered="3" left="1" laneChangedFrom="0" laneChangedTo="0"/>
        <edge id="rend" sampledSeconds="0.51" traveltime="17.99" density="0.04" occupancy="0.01" waitingTime="0.00" speed="27.80" departed="0" arrived="0" entered="1" left="0" laneChangedFrom="0" laneChangedTo="0"/>
    </interval>
    <interval begin="300.00" end="325.00" id="dump_25">
        <edge id="beg" sampledSeconds="19.43" traveltime="18.85" density="1.56" occupancy="0.47" waitingTime="0.00" speed="26.45" departed="0" arrived="0" entered="0" left="2" laneChangedFrom="0" laneChangedTo="0"/>
        <edge id="end" sampledSeconds="30.17" traveltime="24.02" density="2.42" occupancy="0.73" waitingTime="0.00" speed="20.76" departed="0" arrived="0" entered="4" left="0" laneChangedFrom="0" laneChangedTo="0"/>
        <edge id="middle" sampledSeconds="373.13" traveltime="39.26" density="15.07" occupancy="4.52" waitingTime="0.00" speed="25.23" departed="0" arrived="0" entered="2" left="4" laneChangedFrom="0" laneChangedTo="0"/>
        <edge id="rend" sampledSeconds="17.50" traveltime="17.99" density="1.40" occupancy="0.42" waitingTime="0.00" speed="27.80" departed="0" arrived="1" entered="0" left="0" laneChangedFrom="0" laneChangedTo="0"/>
    </interval>
    <interval begin="325.00" end="350.00" id="dump_25">
        <edge id="end" sampledSeconds="180.74" traveltime="20.98" density="14.50" occupancy="4.35" waitingTime="0.00" speed="23.77" departed="0" arrived="0" entered="11" left="5" laneChangedFrom="0" laneChangedTo="0"/>
        <edge id="middle" sampledSeconds="191.36" traveltime="64.32" density="7.73" occupancy="2.32" waitingTime="0.00" speed="15.40" departed="0" arrived="0" entered="0" left="12" laneChangedFrom="0" laneChangedTo="0"/>
        <edge id="rend" sampledSeconds="47.73" traveltime="17.99" density="3.82" occupancy="1.15" waitingTime="0.00" speed="27.80" departed="0" arrived="1" entered="5" left="0" laneChangedFrom="0" laneChangedTo="0"/>
    </interval>
    <interval begin="350.00" end="375.00" id="dump_25">
        <edge id="end" sampledSeconds="141.62" traveltime="18.78" density="11.36" occupancy="3.41" waitingTime="0.00" speed="26.55" departed="0" arrived="0" entered="2" left="12" laneChangedFrom="0" laneChangedTo="0"/>
        <edge id="middle" sampledSeconds="1.94" traveltime="158.10" density="0.08" occupancy="0.02" waitingTime="0.00" speed="6.27" departed="0" arrived="0" entered="0" left="1" laneChangedFrom="0" laneChangedTo="0"/>
        <edge id="rend" sampledSeconds="188.24" traveltime="17.99" density="15.06" occupancy="4.52" waitingTime="0.00" speed="27.80" departed="0" arrived="8" entered="12" left="0" laneChangedFrom="0" laneChangedTo="0"/>
    </interval>
    <interval begin="375.00" end="400.00" id="dump_25">
        <edge id="rend" sampledSeconds="72.00" traveltime="17.99" density="5.76" occupancy="1.73" waitingTime="0.00" speed="27.80" departed="0" arrived="8" entered="0" left="0" laneChangedFrom="0" laneChangedTo="0"/>
    </interval>
    <interval begin="400.00" end="425.00" id="dump_25"/>
    <interval begin="425.00" end="450.00" id="dump_25"/>
    <interval begin="450.00" end="475.00" id="dump_25"/>
    <interval begin="475.00" end="500.00" id="dump_25"/>
    <interval begin="500.00" end="525.00" id="dump_25"/>
    <interval begin="525.00" end="550.00" id="dump_25"/>
    <interval begin="550.00" end="575.00" id="dump_25"/>
    <interval begin="575.00" end="600.00" id="dump_25"/>
    <interval begin="600.00" end="625.00" id="dump_25"/>
    <interval begin="625.00" end="650.00" id="dump_25"/>
    <interval begin="650.00" end="675.00" id="dump_25"/>
    <interval begin="675.00" end="700.00" id="dump_25"/>
    <interval begin="700.00" end="725.00" id="dump_25"/>
    <interval begin="725.00" end="750.00" id="dump_25"/>
    <interval begin="750.00" end="775.00" id="dump_25"/>
    <interval begin="775.00" end="800.00" id="dump_25"/>
    <interval begin="800.00" end="825.00" id="dump_25"/>
    <interval begin="825.00" end="850.00" id="dump_25"/>
    <interval begin="850.00" end="875.00" id="dump_25"/>
    <interval begin="875.00" end="900.00" id="dump_25"/>
    <interval begin="900.00" end="925.00" id="dump_25"/>
    <interval begin="925.00" end="950.00" id="dump_25"/>
    <interval begin="950.00" end="975.00" id="dump_25"/>
    <interval begin="975.00" end="1000.00" id="dump_25"/>
</meandata>
