<?xml version="1.0" encoding="UTF-8"?>

<!-- generated on Wed Feb 17 15:19:24 2016 by SUMO Version dev-SVN-r19996
<?xml version="1.0" encoding="UTF-8"?>

<configuration xmlns:xsi="http://www.w3.org/2001/XMLSchema-instance" xsi:noNamespaceSchemaLocation="http://sumo.dlr.de/xsd/sumoConfiguration.xsd">

    <input>
        <net-file value="net.net.xml"/>
        <route-files value="input_routes.rou.xml"/>
    </input>

    <output>
        <tripinfo-output value="tripinfos.xml"/>
    </output>

    <processing>
        <lateral-resolution value="0.64"/>
    </processing>

    <report>
        <xml-validation value="never"/>
        <no-step-log value="true"/>
    </report>

</configuration>
-->

<tripinfos xmlns:xsi="http://www.w3.org/2001/XMLSchema-instance" xsi:noNamespaceSchemaLocation="http://sumo.dlr.de/xsd/tripinfo_file.xsd">
    <tripinfo id="cars.3" depart="6.00" departLane="beg_0" departPos="5.10" departSpeed="0.00" departDelay="0.00" arrival="216.00" arrivalLane="end_0" arrivalPos="200.00" arrivalSpeed="15.99" duration="210.00" routeLength="494.90" waitSteps="161" timeLoss="178.61" rerouteNo="0" devices="tripinfo_cars.3" vType="car" vaporized=""/>
    <tripinfo id="cars.0" depart="0.00" departLane="beg_0" departPos="5.10" departSpeed="0.00" departDelay="0.00" arrival="216.00" arrivalLane="end_0" arrivalPos="200.00" arrivalSpeed="15.45" duration="216.00" routeLength="494.90" waitSteps="175" timeLoss="184.04" rerouteNo="0" devices="tripinfo_cars.0" vType="car" vaporized=""/>
    <tripinfo id="cars.2" depart="4.00" departLane="beg_1" departPos="5.10" departSpeed="0.00" departDelay="0.00" arrival="217.00" arrivalLane="end_0" arrivalPos="200.00" arrivalSpeed="13.02" duration="213.00" routeLength="494.90" waitSteps="169" timeLoss="177.97" rerouteNo="0" devices="tripinfo_cars.2" vType="car" vaporized=""/>
    <tripinfo id="cars.10" depart="21.00" departLane="beg_0" departPos="5.10" departSpeed="0.00" departDelay="1.00" arrival="218.00" arrivalLane="end_1" arrivalPos="200.00" arrivalSpeed="15.17" duration="197.00" routeLength="494.90" waitSteps="153" timeLoss="166.00" rerouteNo="0" devices="tripinfo_cars.10" vType="car" vaporized=""/>
    <tripinfo id="cars.4" depart="9.00" departLane="beg_1" departPos="5.10" departSpeed="0.00" departDelay="1.00" arrival="219.00" arrivalLane="end_0" arrivalPos="200.00" arrivalSpeed="14.57" duration="210.00" routeLength="494.90" waitSteps="161" timeLoss="175.92" rerouteNo="0" devices="tripinfo_cars.4" vType="car" vaporized=""/>
    <tripinfo id="cars.6" depart="14.00" departLane="beg_0" departPos="5.10" departSpeed="0.00" departDelay="2.00" arrival="221.00" arrivalLane="end_0" arrivalPos="200.00" arrivalSpeed="15.07" duration="207.00" routeLength="494.90" waitSteps="155" timeLoss="173.78" rerouteNo="0" devices="tripinfo_cars.6" vType="car" vaporized=""/>
    <tripinfo id="cars.1" depart="2.00" departLane="beg_1" departPos="5.10" departSpeed="0.00" departDelay="0.00" arrival="222.00" arrivalLane="end_0" arrivalPos="200.00" arrivalSpeed="11.79" duration="220.00" routeLength="494.90" waitSteps="168" timeLoss="178.46" rerouteNo="0" devices="tripinfo_cars.1" vType="car" vaporized=""/>
    <tripinfo id="cars.13" depart="27.00" departLane="beg_1" departPos="5.10" departSpeed="0.00" departDelay="1.00" arrival="222.00" arrivalLane="end_0" arrivalPos="200.00" arrivalSpeed="16.11" duration="195.00" routeLength="494.90" waitSteps="144" timeLoss="166.35" rerouteNo="0" devices="tripinfo_cars.13" vType="car" vaporized=""/>
    <tripinfo id="cars.8" depart="18.00" departLane="beg_0" departPos="5.10" departSpeed="0.00" departDelay="2.00" arrival="223.00" arrivalLane="end_1" arrivalPos="200.00" arrivalSpeed="11.35" duration="205.00" routeLength="494.90" waitSteps="152" timeLoss="163.94" rerouteNo="0" devices="tripinfo_cars.8" vType="car" vaporized=""/>
    <tripinfo id="cars.17" depart="36.00" departLane="beg_1" departPos="5.10" departSpeed="0.00" departDelay="2.00" arrival="227.00" arrivalLane="end_0" arrivalPos="200.00" arrivalSpeed="11.17" duration="191.00" routeLength="494.90" waitSteps="140" timeLoss="150.54" rerouteNo="0" devices="tripinfo_cars.17" vType="car" vaporized=""/>
    <tripinfo id="cars.7" depart="15.00" departLane="beg_1" departPos="5.10" departSpeed="0.00" departDelay="1.00" arrival="227.00" arrivalLane="end_1" arrivalPos="200.00" arrivalSpeed="10.03" duration="212.00" routeLength="494.90" waitSteps="150" timeLoss="165.52" rerouteNo="0" devices="tripinfo_cars.7" vType="car" vaporized=""/>
    <tripinfo id="cars.18" depart="39.00" departLane="beg_1" departPos="5.10" departSpeed="0.00" departDelay="3.00" arrival="229.00" arrivalLane="end_0" arrivalPos="200.00" arrivalSpeed="11.81" duration="190.00" routeLength="494.90" waitSteps="136" timeLoss="149.08" rerouteNo="0" devices="tripinfo_cars.18" vType="car" vaporized=""/>
    <tripinfo id="cars.12" depart="27.00" departLane="beg_0" departPos="5.10" departSpeed="0.00" departDelay="3.00" arrival="229.00" arrivalLane="end_1" arrivalPos="200.00" arrivalSpeed="14.16" duration="202.00" routeLength="494.90" waitSteps="144" timeLoss="168.75" rerouteNo="0" devices="tripinfo_cars.12" vType="car" vaporized=""/>
    <tripinfo id="cars.5" depart="12.00" departLane="beg_1" departPos="5.10" departSpeed="0.00" departDelay="2.00" arrival="230.00" arrivalLane="end_0" arrivalPos="200.00" arrivalSpeed="8.63" duration="218.00" routeLength="494.90" waitSteps="154" timeLoss="163.25" rerouteNo="0" devices="tripinfo_cars.5" vType="car" vaporized=""/>
    <tripinfo id="cars.11" depart="24.00" departLane="beg_1" departPos="5.10" departSpeed="0.00" departDelay="2.00" arrival="231.00" arrivalLane="end_0" arrivalPos="200.00" arrivalSpeed="10.15" duration="207.00" routeLength="494.90" waitSteps="152" timeLoss="173.01" rerouteNo="0" devices="tripinfo_cars.11" vType="car" vaporized=""/>
    <tripinfo id="cars.19" depart="39.00" departLane="beg_0" departPos="5.10" departSpeed="0.00" departDelay="1.00" arrival="231.00" arrivalLane="end_1" arrivalPos="200.00" arrivalSpeed="16.75" duration="192.00" routeLength="494.90" waitSteps="132" timeLoss="164.04" rerouteNo="0" devices="tripinfo_cars.19" vType="car" vaporized=""/>
    <tripinfo id="cars.9" depart="21.00" departLane="beg_1" departPos="5.10" departSpeed="0.00" departDelay="3.00" arrival="233.00" arrivalLane="end_0" arrivalPos="200.00" arrivalSpeed="9.36" duration="212.00" routeLength="494.90" waitSteps="149" timeLoss="161.86" rerouteNo="0" devices="tripinfo_cars.9" vType="car" vaporized=""/>
    <tripinfo id="cars.16" depart="34.00" departLane="beg_0" departPos="5.10" departSpeed="0.00" departDelay="2.00" arrival="235.00" arrivalLane="end_0" arrivalPos="200.00" arrivalSpeed="9.84" duration="201.00" routeLength="494.90" waitSteps="136" timeLoss="153.30" rerouteNo="0" devices="tripinfo_cars.16" vType="car" vaporized=""/>
    <tripinfo id="cars.14" depart="30.00" departLane="beg_1" departPos="5.10" departSpeed="0.00" departDelay="2.00" arrival="235.00" arrivalLane="end_0" arrivalPos="200.00" arrivalSpeed="13.36" duration="205.00" routeLength="494.90" waitSteps="147" timeLoss="168.06" rerouteNo="0" devices="tripinfo_cars.14" vType="car" vaporized=""/>
    <tripinfo id="cars.15" depart="33.00" departLane="beg_1" departPos="5.10" departSpeed="0.00" departDelay="3.00" arrival="236.00" arrivalLane="end_1" arrivalPos="200.00" arrivalSpeed="10.76" duration="203.00" routeLength="494.90" waitSteps="144" timeLoss="160.81" rerouteNo="0" devices="tripinfo_cars.15" vType="car" vaporized=""/>
</tripinfos>
