<?xml version="1.0" encoding="UTF-8"?>

<!-- generated on Wed Oct 21 11:04:09 2015 by SUMO Version dev-SVN-r19136
<?xml version="1.0" encoding="UTF-8"?>

<configuration xmlns:xsi="http://www.w3.org/2001/XMLSchema-instance" xsi:noNamespaceSchemaLocation="http://sumo.dlr.de/xsd/sumoConfiguration.xsd">

    <input>
        <net-file value="net.net.xml"/>
        <route-files value="input_routes.rou.xml"/>
    </input>

    <output>
        <tripinfo-output value="tripinfos.xml"/>
    </output>

    <processing>
        <lateral-resolution value="0.8"/>
    </processing>

    <report>
        <xml-validation value="never"/>
        <no-step-log value="true"/>
    </report>

</configuration>
-->

<tripinfos xmlns:xsi="http://www.w3.org/2001/XMLSchema-instance" xsi:noNamespaceSchemaLocation="http://sumo.dlr.de/xsd/tripinfo_file.xsd">
    <tripinfo id="cars.0" depart="0.00" departLane="beg_0" departPos="5.10" departSpeed="0.00" departDelay="0.00" arrival="37.00" arrivalLane="beg_0" arrivalPos="500.00" arrivalSpeed="14.32" duration="37.00" routeLength="494.90" waitSteps="0" timeLoss="4.27" rerouteNo="0" devices="tripinfo_cars.0" vType="car" vaporized=""/>
    <tripinfo id="cars.3" depart="6.00" departLane="beg_0" departPos="5.10" departSpeed="0.00" departDelay="0.00" arrival="44.00" arrivalLane="beg_0" arrivalPos="500.00" arrivalSpeed="15.51" duration="38.00" routeLength="494.90" waitSteps="0" timeLoss="6.49" rerouteNo="0" devices="tripinfo_cars.3" vType="car" vaporized=""/>
    <tripinfo id="cars.2" depart="4.00" departLane="beg_1" departPos="5.10" departSpeed="0.00" departDelay="0.00" arrival="44.00" arrivalLane="beg_0" arrivalPos="500.00" arrivalSpeed="13.38" duration="40.00" routeLength="494.90" waitSteps="0" timeLoss="4.21" rerouteNo="0" devices="tripinfo_cars.2" vType="car" vaporized=""/>
    <tripinfo id="cars.4" depart="9.00" departLane="beg_1" departPos="5.10" departSpeed="0.00" departDelay="1.00" arrival="48.00" arrivalLane="beg_1" arrivalPos="500.00" arrivalSpeed="14.06" duration="39.00" routeLength="494.90" waitSteps="0" timeLoss="5.00" rerouteNo="0" devices="tripinfo_cars.4" vType="car" vaporized=""/>
    <tripinfo id="cars.1" depart="2.00" departLane="beg_1" departPos="5.10" departSpeed="0.00" departDelay="0.00" arrival="48.00" arrivalLane="beg_0" arrivalPos="500.00" arrivalSpeed="11.47" duration="46.00" routeLength="494.90" waitSteps="0" timeLoss="5.07" rerouteNo="0" devices="tripinfo_cars.1" vType="car" vaporized=""/>
    <tripinfo id="cars.6" depart="13.00" departLane="beg_1" departPos="5.10" departSpeed="0.00" departDelay="1.00" arrival="50.00" arrivalLane="beg_0" arrivalPos="500.00" arrivalSpeed="15.00" duration="37.00" routeLength="494.90" waitSteps="0" timeLoss="4.10" rerouteNo="0" devices="tripinfo_cars.6" vType="car" vaporized=""/>
    <tripinfo id="cars.8" depart="16.00" departLane="beg_0" departPos="5.10" departSpeed="0.00" departDelay="0.00" arrival="65.00" arrivalLane="beg_0" arrivalPos="500.00" arrivalSpeed="11.24" duration="49.00" routeLength="494.90" waitSteps="0" timeLoss="7.86" rerouteNo="0" devices="tripinfo_cars.8" vType="car" vaporized=""/>
    <tripinfo id="cars.7" depart="14.00" departLane="beg_1" departPos="5.10" departSpeed="0.00" departDelay="0.00" arrival="66.00" arrivalLane="beg_0" arrivalPos="500.00" arrivalSpeed="9.58" duration="52.00" routeLength="494.90" waitSteps="0" timeLoss="5.13" rerouteNo="0" devices="tripinfo_cars.7" vType="car" vaporized=""/>
    <tripinfo id="cars.5" depart="10.00" departLane="beg_1" departPos="5.10" departSpeed="0.00" departDelay="0.00" arrival="70.00" arrivalLane="beg_0" arrivalPos="500.00" arrivalSpeed="9.17" duration="60.00" routeLength="494.90" waitSteps="0" timeLoss="5.50" rerouteNo="0" devices="tripinfo_cars.5" vType="car" vaporized=""/>
    <tripinfo id="cars.9" depart="19.00" departLane="beg_0" departPos="5.10" departSpeed="0.00" departDelay="1.00" arrival="75.00" arrivalLane="beg_0" arrivalPos="500.00" arrivalSpeed="9.43" duration="56.00" routeLength="494.90" waitSteps="0" timeLoss="5.79" rerouteNo="0" devices="tripinfo_cars.9" vType="car" vaporized=""/>
</tripinfos>
