<?xml version="1.0" encoding="UTF-8"?>

<!-- generated on Tue Mar  1 15:49:22 2016 by SUMO Version dev-SVN-r20093
<?xml version="1.0" encoding="UTF-8"?>

<configuration xmlns:xsi="http://www.w3.org/2001/XMLSchema-instance" xsi:noNamespaceSchemaLocation="http://sumo.dlr.de/xsd/sumoConfiguration.xsd">

    <input>
        <net-file value="net.net.xml"/>
        <route-files value="input_routes.rou.xml"/>
    </input>

    <output>
        <tripinfo-output value="tripinfos.xml"/>
    </output>

    <processing>
        <lateral-resolution value="0.64"/>
    </processing>

    <report>
        <xml-validation value="never"/>
        <no-step-log value="true"/>
    </report>

</configuration>
-->

<tripinfos xmlns:xsi="http://www.w3.org/2001/XMLSchema-instance" xsi:noNamespaceSchemaLocation="http://sumo.dlr.de/xsd/tripinfo_file.xsd">
    <tripinfo id="cars.3" depart="6.00" departLane="beg_0" departPos="5.10" departSpeed="0.00" departDelay="0.00" arrival="216.00" arrivalLane="end_0" arrivalPos="200.00" arrivalSpeed="15.99" duration="210.00" routeLength="494.90" waitSteps="165" timeLoss="178.61" rerouteNo="0" devices="tripinfo_cars.3" vType="car" vaporized=""/>
    <tripinfo id="cars.0" depart="0.00" departLane="beg_0" departPos="5.10" departSpeed="0.00" departDelay="0.00" arrival="216.00" arrivalLane="end_0" arrivalPos="200.00" arrivalSpeed="15.45" duration="216.00" routeLength="494.90" waitSteps="175" timeLoss="184.04" rerouteNo="0" devices="tripinfo_cars.0" vType="car" vaporized=""/>
    <tripinfo id="cars.2" depart="4.00" departLane="beg_1" departPos="5.10" departSpeed="0.00" departDelay="0.00" arrival="217.00" arrivalLane="end_0" arrivalPos="200.00" arrivalSpeed="13.02" duration="213.00" routeLength="494.90" waitSteps="169" timeLoss="177.97" rerouteNo="0" devices="tripinfo_cars.2" vType="car" vaporized=""/>
    <tripinfo id="cars.10" depart="21.00" departLane="beg_0" departPos="5.10" departSpeed="0.00" departDelay="1.00" arrival="218.00" arrivalLane="end_1" arrivalPos="200.00" arrivalSpeed="15.85" duration="197.00" routeLength="494.90" waitSteps="153" timeLoss="166.01" rerouteNo="0" devices="tripinfo_cars.10" vType="car" vaporized=""/>
    <tripinfo id="cars.4" depart="9.00" departLane="beg_1" departPos="5.10" departSpeed="0.00" departDelay="1.00" arrival="219.00" arrivalLane="end_0" arrivalPos="200.00" arrivalSpeed="14.57" duration="210.00" routeLength="494.90" waitSteps="161" timeLoss="175.93" rerouteNo="0" devices="tripinfo_cars.4" vType="car" vaporized=""/>
    <tripinfo id="cars.12" depart="27.00" departLane="beg_0" departPos="5.10" departSpeed="0.00" departDelay="3.00" arrival="220.00" arrivalLane="end_1" arrivalPos="200.00" arrivalSpeed="14.76" duration="193.00" routeLength="494.90" waitSteps="140" timeLoss="159.94" rerouteNo="0" devices="tripinfo_cars.12" vType="car" vaporized=""/>
    <tripinfo id="cars.11" depart="24.00" departLane="beg_1" departPos="5.10" departSpeed="0.00" departDelay="2.00" arrival="221.00" arrivalLane="end_0" arrivalPos="200.00" arrivalSpeed="14.53" duration="197.00" routeLength="494.90" waitSteps="152" timeLoss="163.05" rerouteNo="0" devices="tripinfo_cars.11" vType="car" vaporized=""/>
    <tripinfo id="cars.1" depart="2.00" departLane="beg_1" departPos="5.10" departSpeed="0.00" departDelay="0.00" arrival="222.00" arrivalLane="end_0" arrivalPos="200.00" arrivalSpeed="11.34" duration="220.00" routeLength="494.90" waitSteps="168" timeLoss="178.41" rerouteNo="0" devices="tripinfo_cars.1" vType="car" vaporized=""/>
    <tripinfo id="cars.19" depart="39.00" departLane="beg_0" departPos="5.10" departSpeed="0.00" departDelay="1.00" arrival="222.00" arrivalLane="end_1" arrivalPos="200.00" arrivalSpeed="17.22" duration="183.00" routeLength="494.90" waitSteps="139" timeLoss="155.03" rerouteNo="0" devices="tripinfo_cars.19" vType="car" vaporized=""/>
    <tripinfo id="cars.6" depart="14.00" departLane="beg_0" departPos="5.10" departSpeed="0.00" departDelay="2.00" arrival="223.00" arrivalLane="end_0" arrivalPos="200.00" arrivalSpeed="13.92" duration="209.00" routeLength="494.90" waitSteps="157" timeLoss="176.00" rerouteNo="0" devices="tripinfo_cars.6" vType="car" vaporized=""/>
    <tripinfo id="cars.13" depart="27.00" departLane="beg_1" departPos="5.10" departSpeed="0.00" departDelay="1.00" arrival="223.00" arrivalLane="end_1" arrivalPos="200.00" arrivalSpeed="17.13" duration="196.00" routeLength="494.90" waitSteps="145" timeLoss="167.09" rerouteNo="0" devices="tripinfo_cars.13" vType="car" vaporized=""/>
    <tripinfo id="cars.7" depart="15.00" departLane="beg_1" departPos="5.10" departSpeed="0.00" departDelay="1.00" arrival="228.00" arrivalLane="end_0" arrivalPos="200.00" arrivalSpeed="9.63" duration="213.00" routeLength="494.90" waitSteps="152" timeLoss="166.50" rerouteNo="0" devices="tripinfo_cars.7" vType="car" vaporized=""/>
    <tripinfo id="cars.8" depart="18.00" departLane="beg_0" departPos="5.10" departSpeed="0.00" departDelay="2.00" arrival="229.00" arrivalLane="end_0" arrivalPos="200.00" arrivalSpeed="10.89" duration="211.00" routeLength="494.90" waitSteps="152" timeLoss="170.01" rerouteNo="0" devices="tripinfo_cars.8" vType="car" vaporized=""/>
    <tripinfo id="cars.18" depart="39.00" departLane="beg_1" departPos="5.10" departSpeed="0.00" departDelay="3.00" arrival="229.00" arrivalLane="end_1" arrivalPos="200.00" arrivalSpeed="11.60" duration="190.00" routeLength="494.90" waitSteps="132" timeLoss="148.79" rerouteNo="0" devices="tripinfo_cars.18" vType="car" vaporized=""/>
    <tripinfo id="cars.17" depart="36.00" departLane="beg_1" departPos="5.10" departSpeed="0.00" departDelay="2.00" arrival="231.00" arrivalLane="end_0" arrivalPos="200.00" arrivalSpeed="12.23" duration="195.00" routeLength="494.90" waitSteps="139" timeLoss="154.15" rerouteNo="0" devices="tripinfo_cars.17" vType="car" vaporized=""/>
    <tripinfo id="cars.5" depart="12.00" departLane="beg_1" departPos="5.10" departSpeed="0.00" departDelay="2.00" arrival="232.00" arrivalLane="end_0" arrivalPos="200.00" arrivalSpeed="8.63" duration="220.00" routeLength="494.90" waitSteps="152" timeLoss="165.30" rerouteNo="0" devices="tripinfo_cars.5" vType="car" vaporized=""/>
    <tripinfo id="cars.9" depart="21.00" departLane="beg_1" departPos="5.10" departSpeed="0.00" departDelay="3.00" arrival="234.00" arrivalLane="end_0" arrivalPos="200.00" arrivalSpeed="9.19" duration="213.00" routeLength="494.90" waitSteps="145" timeLoss="162.20" rerouteNo="0" devices="tripinfo_cars.9" vType="car" vaporized=""/>
    <tripinfo id="cars.16" depart="35.00" departLane="beg_0" departPos="5.10" departSpeed="0.00" departDelay="3.00" arrival="235.00" arrivalLane="end_0" arrivalPos="200.00" arrivalSpeed="10.17" duration="200.00" routeLength="494.90" waitSteps="135" timeLoss="152.08" rerouteNo="0" devices="tripinfo_cars.16" vType="car" vaporized=""/>
    <tripinfo id="cars.15" depart="32.00" departLane="beg_0" departPos="5.10" departSpeed="0.00" departDelay="2.00" arrival="235.00" arrivalLane="end_1" arrivalPos="200.00" arrivalSpeed="10.61" duration="203.00" routeLength="494.90" waitSteps="141" timeLoss="160.88" rerouteNo="0" devices="tripinfo_cars.15" vType="car" vaporized=""/>
    <tripinfo id="cars.14" depart="30.00" departLane="beg_1" departPos="5.10" departSpeed="0.00" departDelay="2.00" arrival="236.00" arrivalLane="end_0" arrivalPos="200.00" arrivalSpeed="13.01" duration="206.00" routeLength="494.90" waitSteps="142" timeLoss="168.74" rerouteNo="0" devices="tripinfo_cars.14" vType="car" vaporized=""/>
</tripinfos>
