<?xml version="1.0" encoding="UTF-8"?>

<!-- generated on Wed Nov  4 10:39:59 2015 by SUMO Version dev-SVN-r19249
<?xml version="1.0" encoding="UTF-8"?>

<configuration xmlns:xsi="http://www.w3.org/2001/XMLSchema-instance" xsi:noNamespaceSchemaLocation="http://sumo.dlr.de/xsd/sumoConfiguration.xsd">

    <input>
        <net-file value="net.net.xml"/>
        <route-files value="input_routes.rou.xml"/>
    </input>

    <output>
        <tripinfo-output value="tripinfos.xml"/>
    </output>

    <processing>
        <lateral-resolution value="0.64"/>
    </processing>

    <report>
        <xml-validation value="never"/>
        <no-step-log value="true"/>
    </report>

</configuration>
-->

<tripinfos xmlns:xsi="http://www.w3.org/2001/XMLSchema-instance" xsi:noNamespaceSchemaLocation="http://sumo.dlr.de/xsd/tripinfo_file.xsd">
    <tripinfo id="cars.0" depart="0.00" departLane="beg_0" departPos="5.10" departSpeed="0.00" departDelay="0.00" arrival="217.00" arrivalLane="end_0" arrivalPos="200.00" arrivalSpeed="15.04" duration="217.00" routeLength="494.90" waitSteps="174" timeLoss="184.29" rerouteNo="0" devices="tripinfo_cars.0" vType="car" vaporized=""/>
    <tripinfo id="cars.2" depart="4.00" departLane="beg_1" departPos="5.10" departSpeed="0.00" departDelay="0.00" arrival="217.00" arrivalLane="end_0" arrivalPos="200.00" arrivalSpeed="13.22" duration="213.00" routeLength="494.90" waitSteps="168" timeLoss="177.59" rerouteNo="0" devices="tripinfo_cars.2" vType="car" vaporized=""/>
    <tripinfo id="cars.4" depart="8.00" departLane="beg_1" departPos="5.10" departSpeed="0.00" departDelay="0.00" arrival="219.00" arrivalLane="end_0" arrivalPos="200.00" arrivalSpeed="14.56" duration="211.00" routeLength="494.90" waitSteps="166" timeLoss="176.63" rerouteNo="0" devices="tripinfo_cars.4" vType="car" vaporized=""/>
    <tripinfo id="cars.6" depart="12.00" departLane="beg_1" departPos="5.10" departSpeed="0.00" departDelay="0.00" arrival="220.00" arrivalLane="end_0" arrivalPos="200.00" arrivalSpeed="13.97" duration="208.00" routeLength="494.90" waitSteps="164" timeLoss="175.24" rerouteNo="0" devices="tripinfo_cars.6" vType="car" vaporized=""/>
    <tripinfo id="cars.1" depart="2.00" departLane="beg_1" departPos="5.10" departSpeed="0.00" departDelay="0.00" arrival="222.00" arrivalLane="end_0" arrivalPos="200.00" arrivalSpeed="11.77" duration="220.00" routeLength="494.90" waitSteps="168" timeLoss="178.47" rerouteNo="0" devices="tripinfo_cars.1" vType="car" vaporized=""/>
    <tripinfo id="cars.7" depart="14.00" departLane="beg_1" departPos="5.10" departSpeed="0.00" departDelay="0.00" arrival="222.00" arrivalLane="end_1" arrivalPos="200.00" arrivalSpeed="10.34" duration="208.00" routeLength="494.90" waitSteps="151" timeLoss="160.89" rerouteNo="0" devices="tripinfo_cars.7" vType="car" vaporized=""/>
    <tripinfo id="cars.3" depart="7.00" departLane="beg_0" departPos="5.10" departSpeed="0.00" departDelay="1.00" arrival="223.00" arrivalLane="end_0" arrivalPos="200.00" arrivalSpeed="12.15" duration="216.00" routeLength="494.90" waitSteps="167" timeLoss="185.34" rerouteNo="0" devices="tripinfo_cars.3" vType="car" vaporized=""/>
    <tripinfo id="cars.10" depart="20.00" departLane="beg_1" departPos="5.10" departSpeed="0.00" departDelay="0.00" arrival="223.00" arrivalLane="end_1" arrivalPos="200.00" arrivalSpeed="11.14" duration="203.00" routeLength="494.90" waitSteps="150" timeLoss="172.73" rerouteNo="0" devices="tripinfo_cars.10" vType="car" vaporized=""/>
    <tripinfo id="cars.8" depart="16.00" departLane="beg_0" departPos="5.10" departSpeed="0.00" departDelay="0.00" arrival="225.00" arrivalLane="end_0" arrivalPos="200.00" arrivalSpeed="11.65" duration="209.00" routeLength="494.90" waitSteps="157" timeLoss="167.95" rerouteNo="0" devices="tripinfo_cars.8" vType="car" vaporized=""/>
    <tripinfo id="cars.12" depart="25.00" departLane="beg_1" departPos="5.10" departSpeed="0.00" departDelay="1.00" arrival="225.00" arrivalLane="end_1" arrivalPos="200.00" arrivalSpeed="11.63" duration="200.00" routeLength="494.90" waitSteps="149" timeLoss="167.27" rerouteNo="0" devices="tripinfo_cars.12" vType="car" vaporized=""/>
    <tripinfo id="cars.11" depart="22.00" departLane="beg_0" departPos="5.10" departSpeed="0.00" departDelay="0.00" arrival="227.00" arrivalLane="end_0" arrivalPos="200.00" arrivalSpeed="14.29" duration="205.00" routeLength="494.90" waitSteps="155" timeLoss="170.38" rerouteNo="0" devices="tripinfo_cars.11" vType="car" vaporized=""/>
    <tripinfo id="cars.13" depart="26.00" departLane="beg_1" departPos="5.10" departSpeed="0.00" departDelay="0.00" arrival="227.00" arrivalLane="end_1" arrivalPos="200.00" arrivalSpeed="13.20" duration="201.00" routeLength="494.90" waitSteps="147" timeLoss="172.05" rerouteNo="0" devices="tripinfo_cars.13" vType="car" vaporized=""/>
    <tripinfo id="cars.15" depart="30.00" departLane="beg_1" departPos="5.10" departSpeed="0.00" departDelay="0.00" arrival="229.00" arrivalLane="end_0" arrivalPos="200.00" arrivalSpeed="11.32" duration="199.00" routeLength="494.90" waitSteps="147" timeLoss="156.87" rerouteNo="0" devices="tripinfo_cars.15" vType="car" vaporized=""/>
    <tripinfo id="cars.19" depart="38.00" departLane="beg_1" departPos="5.10" departSpeed="0.00" departDelay="0.00" arrival="229.00" arrivalLane="end_1" arrivalPos="200.00" arrivalSpeed="14.75" duration="191.00" routeLength="494.90" waitSteps="140" timeLoss="163.28" rerouteNo="0" devices="tripinfo_cars.19" vType="car" vaporized=""/>
    <tripinfo id="cars.17" depart="34.00" departLane="beg_1" departPos="5.10" departSpeed="0.00" departDelay="0.00" arrival="231.00" arrivalLane="end_0" arrivalPos="200.00" arrivalSpeed="11.93" duration="197.00" routeLength="494.90" waitSteps="145" timeLoss="155.98" rerouteNo="0" devices="tripinfo_cars.17" vType="car" vaporized=""/>
    <tripinfo id="cars.5" depart="11.00" departLane="beg_0" departPos="5.10" departSpeed="0.00" departDelay="1.00" arrival="231.00" arrivalLane="end_0" arrivalPos="200.00" arrivalSpeed="8.63" duration="220.00" routeLength="494.90" waitSteps="156" timeLoss="165.91" rerouteNo="0" devices="tripinfo_cars.5" vType="car" vaporized=""/>
    <tripinfo id="cars.18" depart="36.00" departLane="beg_0" departPos="5.10" departSpeed="0.00" departDelay="0.00" arrival="231.00" arrivalLane="end_1" arrivalPos="200.00" arrivalSpeed="10.86" duration="195.00" routeLength="494.90" waitSteps="134" timeLoss="153.55" rerouteNo="0" devices="tripinfo_cars.18" vType="car" vaporized=""/>
    <tripinfo id="cars.9" depart="19.00" departLane="beg_0" departPos="5.10" departSpeed="0.00" departDelay="1.00" arrival="233.00" arrivalLane="end_0" arrivalPos="200.00" arrivalSpeed="9.86" duration="214.00" routeLength="494.90" waitSteps="150" timeLoss="163.64" rerouteNo="0" devices="tripinfo_cars.9" vType="car" vaporized=""/>
    <tripinfo id="cars.14" depart="29.00" departLane="beg_1" departPos="5.10" departSpeed="0.00" departDelay="1.00" arrival="235.00" arrivalLane="end_0" arrivalPos="200.00" arrivalSpeed="12.80" duration="206.00" routeLength="494.90" waitSteps="149" timeLoss="169.09" rerouteNo="0" devices="tripinfo_cars.14" vType="car" vaporized=""/>
    <tripinfo id="cars.16" depart="33.00" departLane="beg_0" departPos="5.10" departSpeed="0.00" departDelay="1.00" arrival="235.00" arrivalLane="end_1" arrivalPos="200.00" arrivalSpeed="10.10" duration="202.00" routeLength="494.90" waitSteps="143" timeLoss="154.26" rerouteNo="0" devices="tripinfo_cars.16" vType="car" vaporized=""/>
</tripinfos>
