<?xml version="1.0" encoding="UTF-8"?>

<!-- generated on Mon Feb  1 15:43:01 2016 by SUMO Version dev-SVN-r19829
<?xml version="1.0" encoding="UTF-8"?>

<configuration xmlns:xsi="http://www.w3.org/2001/XMLSchema-instance" xsi:noNamespaceSchemaLocation="http://sumo.dlr.de/xsd/sumoConfiguration.xsd">

    <input>
        <net-file value="net.net.xml"/>
        <route-files value="input_routes.rou.xml"/>
    </input>

    <output>
        <tripinfo-output value="tripinfos.xml"/>
    </output>

    <processing>
        <lateral-resolution value="0.64"/>
    </processing>

    <report>
        <xml-validation value="never"/>
        <no-step-log value="true"/>
    </report>

</configuration>
-->

<tripinfos xmlns:xsi="http://www.w3.org/2001/XMLSchema-instance" xsi:noNamespaceSchemaLocation="http://sumo.dlr.de/xsd/tripinfo_file.xsd">
    <tripinfo id="cars.3" depart="6.00" departLane="beg_0" departPos="5.10" departSpeed="0.00" departDelay="0.00" arrival="216.00" arrivalLane="end_0" arrivalPos="200.00" arrivalSpeed="15.99" duration="210.00" routeLength="494.90" waitSteps="165" timeLoss="178.61" rerouteNo="0" devices="tripinfo_cars.3" vType="car" vaporized=""/>
    <tripinfo id="cars.0" depart="0.00" departLane="beg_0" departPos="5.10" departSpeed="0.00" departDelay="0.00" arrival="216.00" arrivalLane="end_0" arrivalPos="200.00" arrivalSpeed="15.45" duration="216.00" routeLength="494.90" waitSteps="175" timeLoss="184.04" rerouteNo="0" devices="tripinfo_cars.0" vType="car" vaporized=""/>
    <tripinfo id="cars.2" depart="4.00" departLane="beg_1" departPos="5.10" departSpeed="0.00" departDelay="0.00" arrival="217.00" arrivalLane="end_0" arrivalPos="200.00" arrivalSpeed="13.02" duration="213.00" routeLength="494.90" waitSteps="168" timeLoss="177.96" rerouteNo="0" devices="tripinfo_cars.2" vType="car" vaporized=""/>
    <tripinfo id="cars.6" depart="14.00" departLane="beg_0" departPos="5.10" departSpeed="0.00" departDelay="2.00" arrival="218.00" arrivalLane="end_1" arrivalPos="200.00" arrivalSpeed="13.92" duration="204.00" routeLength="494.90" waitSteps="160" timeLoss="171.28" rerouteNo="0" devices="tripinfo_cars.6" vType="car" vaporized=""/>
    <tripinfo id="cars.4" depart="9.00" departLane="beg_1" departPos="5.10" departSpeed="0.00" departDelay="1.00" arrival="219.00" arrivalLane="end_0" arrivalPos="200.00" arrivalSpeed="14.57" duration="210.00" routeLength="494.90" waitSteps="165" timeLoss="175.94" rerouteNo="0" devices="tripinfo_cars.4" vType="car" vaporized=""/>
    <tripinfo id="cars.10" depart="21.00" departLane="beg_0" departPos="5.10" departSpeed="0.00" departDelay="1.00" arrival="220.00" arrivalLane="end_1" arrivalPos="200.00" arrivalSpeed="15.89" duration="199.00" routeLength="494.90" waitSteps="156" timeLoss="168.24" rerouteNo="0" devices="tripinfo_cars.10" vType="car" vaporized=""/>
    <tripinfo id="cars.1" depart="2.00" departLane="beg_1" departPos="5.10" departSpeed="0.00" departDelay="0.00" arrival="222.00" arrivalLane="end_0" arrivalPos="200.00" arrivalSpeed="11.34" duration="220.00" routeLength="494.90" waitSteps="168" timeLoss="178.42" rerouteNo="0" devices="tripinfo_cars.1" vType="car" vaporized=""/>
    <tripinfo id="cars.12" depart="27.00" departLane="beg_0" departPos="5.10" departSpeed="0.00" departDelay="3.00" arrival="222.00" arrivalLane="end_0" arrivalPos="200.00" arrivalSpeed="14.81" duration="195.00" routeLength="494.90" waitSteps="149" timeLoss="161.72" rerouteNo="0" devices="tripinfo_cars.12" vType="car" vaporized=""/>
    <tripinfo id="cars.8" depart="18.00" departLane="beg_0" departPos="5.10" departSpeed="0.00" departDelay="2.00" arrival="224.00" arrivalLane="end_0" arrivalPos="200.00" arrivalSpeed="11.31" duration="206.00" routeLength="494.90" waitSteps="152" timeLoss="164.92" rerouteNo="0" devices="tripinfo_cars.8" vType="car" vaporized=""/>
    <tripinfo id="cars.11" depart="24.00" departLane="beg_1" departPos="5.10" departSpeed="0.00" departDelay="2.00" arrival="225.00" arrivalLane="end_0" arrivalPos="200.00" arrivalSpeed="14.47" duration="201.00" routeLength="494.90" waitSteps="152" timeLoss="166.34" rerouteNo="0" devices="tripinfo_cars.11" vType="car" vaporized=""/>
    <tripinfo id="cars.14" depart="30.00" departLane="beg_1" departPos="5.10" departSpeed="0.00" departDelay="2.00" arrival="225.00" arrivalLane="end_1" arrivalPos="200.00" arrivalSpeed="13.17" duration="195.00" routeLength="494.90" waitSteps="146" timeLoss="158.04" rerouteNo="0" devices="tripinfo_cars.14" vType="car" vaporized=""/>
    <tripinfo id="cars.13" depart="27.00" departLane="beg_1" departPos="5.10" departSpeed="0.00" departDelay="1.00" arrival="226.00" arrivalLane="end_0" arrivalPos="200.00" arrivalSpeed="16.24" duration="199.00" routeLength="494.90" waitSteps="150" timeLoss="170.20" rerouteNo="0" devices="tripinfo_cars.13" vType="car" vaporized=""/>
    <tripinfo id="cars.5" depart="12.00" departLane="beg_1" departPos="5.10" departSpeed="0.00" departDelay="2.00" arrival="229.00" arrivalLane="end_0" arrivalPos="200.00" arrivalSpeed="8.66" duration="217.00" routeLength="494.90" waitSteps="154" timeLoss="163.10" rerouteNo="0" devices="tripinfo_cars.5" vType="car" vaporized=""/>
    <tripinfo id="cars.18" depart="39.00" departLane="beg_1" departPos="5.10" departSpeed="0.00" departDelay="3.00" arrival="229.00" arrivalLane="end_1" arrivalPos="200.00" arrivalSpeed="10.92" duration="190.00" routeLength="494.90" waitSteps="137" timeLoss="148.81" rerouteNo="0" devices="tripinfo_cars.18" vType="car" vaporized=""/>
    <tripinfo id="cars.17" depart="36.00" departLane="beg_1" departPos="5.10" departSpeed="0.00" departDelay="2.00" arrival="230.00" arrivalLane="end_0" arrivalPos="200.00" arrivalSpeed="11.96" duration="194.00" routeLength="494.90" waitSteps="140" timeLoss="152.63" rerouteNo="0" devices="tripinfo_cars.17" vType="car" vaporized=""/>
    <tripinfo id="cars.7" depart="15.00" departLane="beg_1" departPos="5.10" departSpeed="0.00" departDelay="1.00" arrival="231.00" arrivalLane="end_0" arrivalPos="200.00" arrivalSpeed="10.39" duration="216.00" routeLength="494.90" waitSteps="153" timeLoss="169.48" rerouteNo="0" devices="tripinfo_cars.7" vType="car" vaporized=""/>
    <tripinfo id="cars.19" depart="39.00" departLane="beg_0" departPos="5.10" departSpeed="0.00" departDelay="1.00" arrival="231.00" arrivalLane="end_1" arrivalPos="200.00" arrivalSpeed="14.57" duration="192.00" routeLength="494.90" waitSteps="137" timeLoss="164.27" rerouteNo="0" devices="tripinfo_cars.19" vType="car" vaporized=""/>
    <tripinfo id="cars.9" depart="21.00" departLane="beg_1" departPos="5.10" departSpeed="0.00" departDelay="3.00" arrival="233.00" arrivalLane="end_0" arrivalPos="200.00" arrivalSpeed="9.16" duration="212.00" routeLength="494.90" waitSteps="149" timeLoss="161.90" rerouteNo="0" devices="tripinfo_cars.9" vType="car" vaporized=""/>
    <tripinfo id="cars.16" depart="35.00" departLane="beg_0" departPos="5.10" departSpeed="0.00" departDelay="3.00" arrival="235.00" arrivalLane="end_0" arrivalPos="200.00" arrivalSpeed="10.39" duration="200.00" routeLength="494.90" waitSteps="142" timeLoss="152.09" rerouteNo="0" devices="tripinfo_cars.16" vType="car" vaporized=""/>
    <tripinfo id="cars.15" depart="32.00" departLane="beg_0" departPos="5.10" departSpeed="0.00" departDelay="2.00" arrival="235.00" arrivalLane="end_0" arrivalPos="200.00" arrivalSpeed="11.52" duration="203.00" routeLength="494.90" waitSteps="144" timeLoss="160.83" rerouteNo="0" devices="tripinfo_cars.15" vType="car" vaporized=""/>
</tripinfos>
