<?xml version="1.0" encoding="UTF-8"?>

<!-- generated on Thu Oct 22 15:59:33 2015 by SUMO Version dev-SVN-r19150
<?xml version="1.0" encoding="UTF-8"?>

<configuration xmlns:xsi="http://www.w3.org/2001/XMLSchema-instance" xsi:noNamespaceSchemaLocation="http://sumo.dlr.de/xsd/sumoConfiguration.xsd">

    <input>
        <net-file value="net.net.xml"/>
        <route-files value="input_routes.rou.xml"/>
    </input>

    <output>
        <tripinfo-output value="tripinfos.xml"/>
    </output>

    <processing>
        <lateral-resolution value="0.64"/>
    </processing>

    <report>
        <xml-validation value="never"/>
        <no-step-log value="true"/>
    </report>

</configuration>
-->

<tripinfos xmlns:xsi="http://www.w3.org/2001/XMLSchema-instance" xsi:noNamespaceSchemaLocation="http://sumo.dlr.de/xsd/tripinfo_file.xsd">
    <tripinfo id="cars.3" depart="7.00" departLane="beg_0" departPos="5.10" departSpeed="0.00" departDelay="1.00" arrival="215.00" arrivalLane="end_1" arrivalPos="200.00" arrivalSpeed="15.68" duration="208.00" routeLength="494.90" waitSteps="166" timeLoss="177.34" rerouteNo="0" devices="tripinfo_cars.3" vType="car" vaporized=""/>
    <tripinfo id="cars.0" depart="0.00" departLane="beg_0" departPos="5.10" departSpeed="0.00" departDelay="0.00" arrival="216.00" arrivalLane="end_0" arrivalPos="200.00" arrivalSpeed="14.97" duration="216.00" routeLength="494.90" waitSteps="174" timeLoss="183.58" rerouteNo="0" devices="tripinfo_cars.0" vType="car" vaporized=""/>
    <tripinfo id="cars.2" depart="4.00" departLane="beg_1" departPos="5.10" departSpeed="0.00" departDelay="0.00" arrival="217.00" arrivalLane="end_0" arrivalPos="200.00" arrivalSpeed="12.96" duration="213.00" routeLength="494.90" waitSteps="169" timeLoss="177.71" rerouteNo="0" devices="tripinfo_cars.2" vType="car" vaporized=""/>
    <tripinfo id="cars.6" depart="12.00" departLane="beg_1" departPos="5.10" departSpeed="0.00" departDelay="0.00" arrival="218.00" arrivalLane="end_1" arrivalPos="200.00" arrivalSpeed="15.04" duration="206.00" routeLength="494.90" waitSteps="161" timeLoss="172.99" rerouteNo="0" devices="tripinfo_cars.6" vType="car" vaporized=""/>
    <tripinfo id="cars.4" depart="8.00" departLane="beg_1" departPos="5.10" departSpeed="0.00" departDelay="0.00" arrival="219.00" arrivalLane="end_0" arrivalPos="200.00" arrivalSpeed="13.46" duration="211.00" routeLength="494.90" waitSteps="165" timeLoss="176.77" rerouteNo="0" devices="tripinfo_cars.4" vType="car" vaporized=""/>
    <tripinfo id="cars.10" depart="20.00" departLane="beg_1" departPos="5.10" departSpeed="0.00" departDelay="0.00" arrival="220.00" arrivalLane="end_1" arrivalPos="200.00" arrivalSpeed="16.20" duration="200.00" routeLength="494.90" waitSteps="157" timeLoss="169.14" rerouteNo="0" devices="tripinfo_cars.10" vType="car" vaporized=""/>
    <tripinfo id="cars.1" depart="2.00" departLane="beg_1" departPos="5.10" departSpeed="0.00" departDelay="0.00" arrival="221.00" arrivalLane="end_0" arrivalPos="200.00" arrivalSpeed="11.78" duration="219.00" routeLength="494.90" waitSteps="167" timeLoss="177.81" rerouteNo="0" devices="tripinfo_cars.1" vType="car" vaporized=""/>
    <tripinfo id="cars.8" depart="17.00" departLane="beg_1" departPos="5.10" departSpeed="0.00" departDelay="1.00" arrival="225.00" arrivalLane="end_1" arrivalPos="200.00" arrivalSpeed="11.25" duration="208.00" routeLength="494.90" waitSteps="155" timeLoss="167.12" rerouteNo="0" devices="tripinfo_cars.8" vType="car" vaporized=""/>
    <tripinfo id="cars.7" depart="14.00" departLane="beg_1" departPos="5.10" departSpeed="0.00" departDelay="0.00" arrival="226.00" arrivalLane="end_0" arrivalPos="200.00" arrivalSpeed="9.90" duration="212.00" routeLength="494.90" waitSteps="154" timeLoss="165.13" rerouteNo="0" devices="tripinfo_cars.7" vType="car" vaporized=""/>
    <tripinfo id="cars.12" depart="25.00" departLane="beg_1" departPos="5.10" departSpeed="0.00" departDelay="1.00" arrival="227.00" arrivalLane="end_1" arrivalPos="200.00" arrivalSpeed="14.10" duration="202.00" routeLength="494.90" waitSteps="154" timeLoss="168.75" rerouteNo="0" devices="tripinfo_cars.12" vType="car" vaporized=""/>
    <tripinfo id="cars.5" depart="11.00" departLane="beg_0" departPos="5.10" departSpeed="0.00" departDelay="1.00" arrival="229.00" arrivalLane="end_0" arrivalPos="200.00" arrivalSpeed="8.66" duration="218.00" routeLength="494.90" waitSteps="154" timeLoss="163.27" rerouteNo="0" devices="tripinfo_cars.5" vType="car" vaporized=""/>
    <tripinfo id="cars.19" depart="38.00" departLane="beg_0" departPos="5.10" departSpeed="0.00" departDelay="0.00" arrival="229.00" arrivalLane="end_1" arrivalPos="200.00" arrivalSpeed="15.97" duration="191.00" routeLength="494.90" waitSteps="145" timeLoss="163.11" rerouteNo="0" devices="tripinfo_cars.19" vType="car" vaporized=""/>
    <tripinfo id="cars.9" depart="18.00" departLane="beg_1" departPos="5.10" departSpeed="0.00" departDelay="0.00" arrival="230.00" arrivalLane="end_0" arrivalPos="200.00" arrivalSpeed="9.88" duration="212.00" routeLength="494.90" waitSteps="149" timeLoss="161.47" rerouteNo="0" devices="tripinfo_cars.9" vType="car" vaporized=""/>
    <tripinfo id="cars.11" depart="23.00" departLane="beg_1" departPos="5.10" departSpeed="0.00" departDelay="1.00" arrival="231.00" arrivalLane="end_0" arrivalPos="200.00" arrivalSpeed="11.45" duration="208.00" routeLength="494.90" waitSteps="153" timeLoss="173.33" rerouteNo="0" devices="tripinfo_cars.11" vType="car" vaporized=""/>
    <tripinfo id="cars.18" depart="38.00" departLane="beg_1" departPos="5.10" departSpeed="0.00" departDelay="2.00" arrival="231.00" arrivalLane="end_1" arrivalPos="200.00" arrivalSpeed="12.06" duration="193.00" routeLength="494.90" waitSteps="138" timeLoss="151.87" rerouteNo="0" devices="tripinfo_cars.18" vType="car" vaporized=""/>
    <tripinfo id="cars.14" depart="28.00" departLane="beg_0" departPos="5.10" departSpeed="0.00" departDelay="0.00" arrival="232.00" arrivalLane="end_0" arrivalPos="200.00" arrivalSpeed="12.45" duration="204.00" routeLength="494.90" waitSteps="149" timeLoss="166.89" rerouteNo="0" devices="tripinfo_cars.14" vType="car" vaporized=""/>
    <tripinfo id="cars.13" depart="28.00" departLane="beg_1" departPos="5.10" departSpeed="0.00" departDelay="2.00" arrival="232.00" arrivalLane="end_0" arrivalPos="200.00" arrivalSpeed="11.18" duration="204.00" routeLength="494.90" waitSteps="153" timeLoss="175.24" rerouteNo="0" devices="tripinfo_cars.13" vType="car" vaporized=""/>
    <tripinfo id="cars.17" depart="35.00" departLane="beg_1" departPos="5.10" departSpeed="0.00" departDelay="1.00" arrival="233.00" arrivalLane="end_0" arrivalPos="200.00" arrivalSpeed="11.02" duration="198.00" routeLength="494.90" waitSteps="141" timeLoss="157.54" rerouteNo="0" devices="tripinfo_cars.17" vType="car" vaporized=""/>
    <tripinfo id="cars.15" depart="31.00" departLane="beg_0" departPos="5.10" departSpeed="0.00" departDelay="1.00" arrival="234.00" arrivalLane="end_0" arrivalPos="200.00" arrivalSpeed="11.30" duration="203.00" routeLength="494.90" waitSteps="146" timeLoss="160.86" rerouteNo="0" devices="tripinfo_cars.15" vType="car" vaporized=""/>
    <tripinfo id="cars.16" depart="34.00" departLane="beg_1" departPos="5.10" departSpeed="0.00" departDelay="2.00" arrival="235.00" arrivalLane="end_1" arrivalPos="200.00" arrivalSpeed="10.19" duration="201.00" routeLength="494.90" waitSteps="141" timeLoss="153.21" rerouteNo="0" devices="tripinfo_cars.16" vType="car" vaporized=""/>
</tripinfos>
