<?xml version="1.0" encoding="UTF-8"?>

<!-- generated on Wed Jun  1 15:57:15 2016 by SUMO Version dev-SVN-r20832
<?xml version="1.0" encoding="UTF-8"?>

<configuration xmlns:xsi="http://www.w3.org/2001/XMLSchema-instance" xsi:noNamespaceSchemaLocation="http://sumo.dlr.de/xsd/sumoConfiguration.xsd">

    <input>
        <net-file value="net.net.xml"/>
        <route-files value="input_routes.rou.xml"/>
    </input>

    <output>
        <vehroute-output value="vehroutes.xml"/>
        <vehroute-output.exit-times value="true"/>
    </output>

    <processing>
        <time-to-teleport value="10"/>
    </processing>

    <report>
        <xml-validation value="never"/>
        <no-step-log value="true"/>
    </report>

</configuration>
-->

<routes xmlns:xsi="http://www.w3.org/2001/XMLSchema-instance" xsi:noNamespaceSchemaLocation="http://sumo.dlr.de/xsd/routes_file.xsd">
    <vehicle id="teleport" type="t0" depart="3.00" arrival="31.00">
        <route edges="beg end" exitTimes="13.00 31.00"/>
    </vehicle>

    <vehicle id="blocker" type="t0" depart="0.00" arrival="74.00">
        <route edges="beg end" exitTimes="11.00 74.00"/>
    </vehicle>

</routes>
