<?xml version="1.0" encoding="UTF-8"?>

<!-- generated on Wed Feb 17 12:58:49 2016 by SUMO Version dev-SVN-r19996
<?xml version="1.0" encoding="UTF-8"?>

<configuration xmlns:xsi="http://www.w3.org/2001/XMLSchema-instance" xsi:noNamespaceSchemaLocation="http://sumo.dlr.de/xsd/sumoConfiguration.xsd">

    <input>
        <net-file value="net.net.xml"/>
        <route-files value="input_routes.rou.xml"/>
    </input>

    <output>
        <tripinfo-output value="tripinfos.xml"/>
    </output>

    <processing>
        <lateral-resolution value="0.64"/>
    </processing>

    <report>
        <xml-validation value="never"/>
        <no-step-log value="true"/>
    </report>

</configuration>
-->

<tripinfos xmlns:xsi="http://www.w3.org/2001/XMLSchema-instance" xsi:noNamespaceSchemaLocation="http://sumo.dlr.de/xsd/tripinfo_file.xsd">
    <tripinfo id="mixed.8" depart="10.00" departLane="beg_0" departPos="5.10" departSpeed="0.00" departDelay="2.00" arrival="216.00" arrivalLane="end_0" arrivalPos="200.00" arrivalSpeed="16.85" duration="206.00" routeLength="494.90" waitSteps="162" timeLoss="176.46" rerouteNo="0" devices="tripinfo_mixed.8" vType="car" vaporized=""/>
    <tripinfo id="mixed.5" depart="6.00" departLane="beg_0" departPos="5.10" departSpeed="0.00" departDelay="1.00" arrival="217.00" arrivalLane="end_0" arrivalPos="200.00" arrivalSpeed="13.74" duration="211.00" routeLength="494.90" waitSteps="161" timeLoss="176.04" rerouteNo="0" devices="tripinfo_mixed.5" vType="car" vaporized=""/>
    <tripinfo id="mixed.11" depart="17.00" departLane="beg_0" departPos="5.10" departSpeed="0.00" departDelay="6.00" arrival="219.00" arrivalLane="end_0" arrivalPos="200.00" arrivalSpeed="15.03" duration="202.00" routeLength="494.90" waitSteps="152" timeLoss="168.48" rerouteNo="0" devices="tripinfo_mixed.11" vType="car" vaporized=""/>
    <tripinfo id="mixed.6" depart="7.00" departLane="beg_1" departPos="2.20" departSpeed="0.00" departDelay="1.00" arrival="221.00" arrivalLane="end_0" arrivalPos="200.00" arrivalSpeed="16.41" duration="214.00" routeLength="497.80" waitSteps="162" timeLoss="183.50" rerouteNo="0" devices="tripinfo_mixed.6" vType="moped" vaporized=""/>
    <tripinfo id="mixed.22" depart="36.00" departLane="beg_1" departPos="2.20" departSpeed="0.00" departDelay="14.00" arrival="222.00" arrivalLane="end_1" arrivalPos="200.00" arrivalSpeed="16.60" duration="186.00" routeLength="497.80" waitSteps="129" timeLoss="155.88" rerouteNo="0" devices="tripinfo_mixed.22" vType="moped" vaporized=""/>
    <tripinfo id="mixed.0" depart="0.00" departLane="beg_0" departPos="2.20" departSpeed="0.00" departDelay="0.00" arrival="224.00" arrivalLane="end_0" arrivalPos="200.00" arrivalSpeed="10.12" duration="224.00" routeLength="497.80" waitSteps="163" timeLoss="176.35" rerouteNo="0" devices="tripinfo_mixed.0" vType="moped" vaporized=""/>
    <tripinfo id="mixed.9" depart="13.00" departLane="beg_0" departPos="5.10" departSpeed="0.00" departDelay="4.00" arrival="225.00" arrivalLane="end_0" arrivalPos="200.00" arrivalSpeed="10.16" duration="212.00" routeLength="494.90" waitSteps="150" timeLoss="166.83" rerouteNo="0" devices="tripinfo_mixed.9" vType="car" vaporized=""/>
    <tripinfo id="mixed.28" depart="42.00" departLane="beg_0" departPos="2.20" departSpeed="0.00" departDelay="14.00" arrival="225.00" arrivalLane="end_1" arrivalPos="200.00" arrivalSpeed="16.27" duration="183.00" routeLength="497.80" waitSteps="123" timeLoss="152.89" rerouteNo="0" devices="tripinfo_mixed.28" vType="moped" vaporized=""/>
    <tripinfo id="mixed.3" depart="4.00" departLane="beg_1" departPos="2.20" departSpeed="0.00" departDelay="1.00" arrival="226.00" arrivalLane="end_0" arrivalPos="200.00" arrivalSpeed="12.20" duration="222.00" routeLength="497.80" waitSteps="163" timeLoss="184.82" rerouteNo="0" devices="tripinfo_mixed.3" vType="moped" vaporized=""/>
    <tripinfo id="mixed.23" depart="36.00" departLane="beg_0" departPos="2.20" departSpeed="0.00" departDelay="13.00" arrival="226.00" arrivalLane="end_0" arrivalPos="200.00" arrivalSpeed="11.33" duration="190.00" routeLength="497.80" waitSteps="123" timeLoss="160.07" rerouteNo="0" devices="tripinfo_mixed.23" vType="moped" vaporized=""/>
    <tripinfo id="mixed.37" depart="58.00" departLane="beg_1" departPos="2.20" departSpeed="0.00" departDelay="21.00" arrival="227.00" arrivalLane="end_1" arrivalPos="200.00" arrivalSpeed="16.49" duration="169.00" routeLength="497.80" waitSteps="105" timeLoss="138.50" rerouteNo="0" devices="tripinfo_mixed.37" vType="moped" vaporized=""/>
    <tripinfo id="mixed.14" depart="20.00" departLane="beg_1" departPos="2.20" departSpeed="0.00" departDelay="6.00" arrival="228.00" arrivalLane="end_0" arrivalPos="200.00" arrivalSpeed="13.97" duration="208.00" routeLength="497.80" waitSteps="149" timeLoss="172.86" rerouteNo="0" devices="tripinfo_mixed.14" vType="moped" vaporized=""/>
    <tripinfo id="mixed.10" depart="13.00" departLane="beg_1" departPos="2.20" departSpeed="0.00" departDelay="3.00" arrival="228.00" arrivalLane="end_0" arrivalPos="200.00" arrivalSpeed="9.65" duration="215.00" routeLength="497.80" waitSteps="149" timeLoss="164.24" rerouteNo="0" devices="tripinfo_mixed.10" vType="moped" vaporized=""/>
    <tripinfo id="mixed.17" depart="28.00" departLane="beg_1" departPos="5.10" departSpeed="0.00" departDelay="11.00" arrival="228.00" arrivalLane="end_1" arrivalPos="200.00" arrivalSpeed="13.86" duration="200.00" routeLength="494.90" waitSteps="147" timeLoss="164.72" rerouteNo="0" devices="tripinfo_mixed.17" vType="car" vaporized=""/>
    <tripinfo id="mixed.13" depart="20.00" departLane="beg_0" departPos="2.20" departSpeed="0.00" departDelay="7.00" arrival="229.00" arrivalLane="end_0" arrivalPos="200.00" arrivalSpeed="14.78" duration="209.00" routeLength="497.80" waitSteps="146" timeLoss="178.81" rerouteNo="0" devices="tripinfo_mixed.13" vType="moped" vaporized=""/>
    <tripinfo id="mixed.39" depart="62.00" departLane="beg_0" departPos="2.20" departSpeed="0.00" departDelay="23.00" arrival="229.00" arrivalLane="end_1" arrivalPos="200.00" arrivalSpeed="16.23" duration="167.00" routeLength="497.80" waitSteps="100" timeLoss="136.27" rerouteNo="0" devices="tripinfo_mixed.39" vType="moped" vaporized=""/>
    <tripinfo id="mixed.7" depart="9.00" departLane="beg_1" departPos="2.20" departSpeed="0.00" departDelay="2.00" arrival="230.00" arrivalLane="end_0" arrivalPos="200.00" arrivalSpeed="9.34" duration="221.00" routeLength="497.80" waitSteps="150" timeLoss="168.78" rerouteNo="0" devices="tripinfo_mixed.7" vType="moped" vaporized=""/>
    <tripinfo id="mixed.19" depart="31.00" departLane="beg_1" departPos="5.10" departSpeed="0.00" departDelay="12.00" arrival="230.00" arrivalLane="end_1" arrivalPos="200.00" arrivalSpeed="14.72" duration="199.00" routeLength="494.90" waitSteps="146" timeLoss="164.97" rerouteNo="0" devices="tripinfo_mixed.19" vType="car" vaporized=""/>
    <tripinfo id="mixed.15" depart="23.00" departLane="beg_0" departPos="2.20" departSpeed="0.00" departDelay="8.00" arrival="231.00" arrivalLane="end_0" arrivalPos="200.00" arrivalSpeed="15.40" duration="208.00" routeLength="497.80" waitSteps="143" timeLoss="174.89" rerouteNo="0" devices="tripinfo_mixed.15" vType="moped" vaporized=""/>
    <tripinfo id="mixed.18" depart="30.00" departLane="beg_0" departPos="5.10" departSpeed="0.00" departDelay="12.00" arrival="235.00" arrivalLane="end_0" arrivalPos="200.00" arrivalSpeed="9.52" duration="205.00" routeLength="494.90" waitSteps="141" timeLoss="156.97" rerouteNo="0" devices="tripinfo_mixed.18" vType="car" vaporized=""/>
    <tripinfo id="mixed.21" depart="34.00" departLane="beg_1" departPos="5.10" departSpeed="0.00" departDelay="13.00" arrival="235.00" arrivalLane="end_1" arrivalPos="200.00" arrivalSpeed="10.53" duration="201.00" routeLength="494.90" waitSteps="140" timeLoss="155.70" rerouteNo="0" devices="tripinfo_mixed.21" vType="car" vaporized=""/>
    <tripinfo id="mixed.4" depart="4.00" departLane="beg_0" departPos="2.20" departSpeed="0.00" departDelay="0.00" arrival="237.00" arrivalLane="end_0" arrivalPos="200.00" arrivalSpeed="7.33" duration="233.00" routeLength="497.80" waitSteps="149" timeLoss="166.54" rerouteNo="0" devices="tripinfo_mixed.4" vType="moped" vaporized=""/>
    <tripinfo id="mixed.25" depart="39.00" departLane="beg_1" departPos="5.10" departSpeed="0.00" departDelay="14.00" arrival="237.00" arrivalLane="end_0" arrivalPos="200.00" arrivalSpeed="11.76" duration="198.00" routeLength="494.90" waitSteps="139" timeLoss="159.49" rerouteNo="0" devices="tripinfo_mixed.25" vType="car" vaporized=""/>
    <tripinfo id="mixed.45" depart="77.00" departLane="beg_1" departPos="5.10" departSpeed="0.00" departDelay="32.00" arrival="237.00" arrivalLane="end_1" arrivalPos="200.00" arrivalSpeed="13.63" duration="160.00" routeLength="494.90" waitSteps="103" timeLoss="123.60" rerouteNo="0" devices="tripinfo_mixed.45" vType="car" vaporized=""/>
    <tripinfo id="mixed.12" depart="19.00" departLane="beg_1" departPos="2.20" departSpeed="0.00" departDelay="7.00" arrival="239.00" arrivalLane="end_0" arrivalPos="200.00" arrivalSpeed="8.97" duration="220.00" routeLength="497.80" waitSteps="149" timeLoss="170.98" rerouteNo="0" devices="tripinfo_mixed.12" vType="moped" vaporized=""/>
    <tripinfo id="mixed.20" depart="34.00" departLane="beg_0" departPos="5.10" departSpeed="0.00" departDelay="14.00" arrival="239.00" arrivalLane="end_0" arrivalPos="200.00" arrivalSpeed="15.14" duration="205.00" routeLength="494.90" waitSteps="138" timeLoss="176.41" rerouteNo="0" devices="tripinfo_mixed.20" vType="car" vaporized=""/>
    <tripinfo id="mixed.38" depart="60.00" departLane="beg_0" departPos="2.20" departSpeed="0.00" departDelay="22.00" arrival="239.00" arrivalLane="end_1" arrivalPos="200.00" arrivalSpeed="12.93" duration="179.00" routeLength="497.80" waitSteps="115" timeLoss="148.50" rerouteNo="0" devices="tripinfo_mixed.38" vType="moped" vaporized=""/>
    <tripinfo id="mixed.48" depart="79.00" departLane="beg_0" departPos="2.20" departSpeed="0.00" departDelay="31.00" arrival="239.00" arrivalLane="end_1" arrivalPos="200.00" arrivalSpeed="13.10" duration="160.00" routeLength="497.80" waitSteps="95" timeLoss="121.72" rerouteNo="0" devices="tripinfo_mixed.48" vType="moped" vaporized=""/>
    <tripinfo id="mixed.24" depart="38.00" departLane="beg_0" departPos="2.20" departSpeed="0.00" departDelay="14.00" arrival="241.00" arrivalLane="end_0" arrivalPos="200.00" arrivalSpeed="13.44" duration="203.00" routeLength="497.80" waitSteps="138" timeLoss="165.63" rerouteNo="0" devices="tripinfo_mixed.24" vType="moped" vaporized=""/>
    <tripinfo id="mixed.35" depart="54.00" departLane="beg_1" departPos="2.20" departSpeed="0.00" departDelay="19.00" arrival="241.00" arrivalLane="end_0" arrivalPos="200.00" arrivalSpeed="14.29" duration="187.00" routeLength="497.80" waitSteps="124" timeLoss="153.19" rerouteNo="0" devices="tripinfo_mixed.35" vType="moped" vaporized=""/>
    <tripinfo id="mixed.49" depart="80.00" departLane="beg_1" departPos="2.20" departSpeed="0.00" departDelay="31.00" arrival="241.00" arrivalLane="end_1" arrivalPos="200.00" arrivalSpeed="11.58" duration="161.00" routeLength="497.80" waitSteps="96" timeLoss="117.28" rerouteNo="0" devices="tripinfo_mixed.49" vType="moped" vaporized=""/>
    <tripinfo id="mixed.40" depart="64.00" departLane="beg_1" departPos="2.20" departSpeed="0.00" departDelay="24.00" arrival="242.00" arrivalLane="end_0" arrivalPos="200.00" arrivalSpeed="13.91" duration="178.00" routeLength="497.80" waitSteps="112" timeLoss="142.29" rerouteNo="0" devices="tripinfo_mixed.40" vType="moped" vaporized=""/>
    <tripinfo id="mixed.55" depart="93.00" departLane="beg_1" departPos="5.10" departSpeed="0.00" departDelay="38.00" arrival="242.00" arrivalLane="end_1" arrivalPos="200.00" arrivalSpeed="13.81" duration="149.00" routeLength="494.90" waitSteps="94" timeLoss="120.01" rerouteNo="0" devices="tripinfo_mixed.55" vType="car" vaporized=""/>
    <tripinfo id="mixed.16" depart="23.00" departLane="beg_1" departPos="2.20" departSpeed="0.00" departDelay="7.00" arrival="243.00" arrivalLane="end_0" arrivalPos="200.00" arrivalSpeed="7.70" duration="220.00" routeLength="497.80" waitSteps="138" timeLoss="155.58" rerouteNo="0" devices="tripinfo_mixed.16" vType="moped" vaporized=""/>
    <tripinfo id="mixed.44" depart="74.00" departLane="beg_0" departPos="5.10" departSpeed="0.00" departDelay="30.00" arrival="244.00" arrivalLane="end_0" arrivalPos="200.00" arrivalSpeed="13.55" duration="170.00" routeLength="494.90" waitSteps="103" timeLoss="135.72" rerouteNo="0" devices="tripinfo_mixed.44" vType="car" vaporized=""/>
    <tripinfo id="mixed.56" depart="96.00" departLane="beg_0" departPos="5.10" departSpeed="0.00" departDelay="40.00" arrival="244.00" arrivalLane="end_1" arrivalPos="200.00" arrivalSpeed="13.91" duration="148.00" routeLength="494.90" waitSteps="93" timeLoss="114.17" rerouteNo="0" devices="tripinfo_mixed.56" vType="car" vaporized=""/>
    <tripinfo id="mixed.41" depart="67.00" departLane="beg_0" departPos="2.20" departSpeed="0.00" departDelay="26.00" arrival="246.00" arrivalLane="end_0" arrivalPos="200.00" arrivalSpeed="14.77" duration="179.00" routeLength="497.80" waitSteps="107" timeLoss="148.45" rerouteNo="0" devices="tripinfo_mixed.41" vType="moped" vaporized=""/>
    <tripinfo id="mixed.54" depart="91.00" departLane="beg_0" departPos="5.10" departSpeed="0.00" departDelay="37.00" arrival="246.00" arrivalLane="end_1" arrivalPos="200.00" arrivalSpeed="14.84" duration="155.00" routeLength="494.90" waitSteps="86" timeLoss="122.37" rerouteNo="0" devices="tripinfo_mixed.54" vType="car" vaporized=""/>
    <tripinfo id="mixed.32" depart="51.00" departLane="beg_0" departPos="5.10" departSpeed="0.00" departDelay="19.00" arrival="248.00" arrivalLane="end_0" arrivalPos="200.00" arrivalSpeed="13.78" duration="197.00" routeLength="494.90" waitSteps="130" timeLoss="163.17" rerouteNo="0" devices="tripinfo_mixed.32" vType="car" vaporized=""/>
    <tripinfo id="mixed.60" depart="102.00" departLane="beg_0" departPos="5.10" departSpeed="0.00" departDelay="42.00" arrival="248.00" arrivalLane="end_1" arrivalPos="200.00" arrivalSpeed="13.24" duration="146.00" routeLength="494.90" waitSteps="84" timeLoss="110.79" rerouteNo="0" devices="tripinfo_mixed.60" vType="car" vaporized=""/>
    <tripinfo id="mixed.30" depart="45.00" departLane="beg_1" departPos="2.20" departSpeed="0.00" departDelay="15.00" arrival="251.00" arrivalLane="end_0" arrivalPos="200.00" arrivalSpeed="14.21" duration="206.00" routeLength="497.80" waitSteps="135" timeLoss="173.83" rerouteNo="0" devices="tripinfo_mixed.30" vType="moped" vaporized=""/>
    <tripinfo id="mixed.64" depart="109.00" departLane="beg_1" departPos="5.10" departSpeed="0.00" departDelay="45.00" arrival="253.00" arrivalLane="end_1" arrivalPos="200.00" arrivalSpeed="13.60" duration="144.00" routeLength="494.90" waitSteps="82" timeLoss="107.94" rerouteNo="0" devices="tripinfo_mixed.64" vType="car" vaporized=""/>
    <tripinfo id="mixed.27" depart="41.00" departLane="beg_1" departPos="2.20" departSpeed="0.00" departDelay="14.00" arrival="254.00" arrivalLane="end_0" arrivalPos="200.00" arrivalSpeed="10.54" duration="213.00" routeLength="497.80" waitSteps="135" timeLoss="165.30" rerouteNo="0" devices="tripinfo_mixed.27" vType="moped" vaporized=""/>
    <tripinfo id="mixed.57" depart="96.00" departLane="beg_1" departPos="2.20" departSpeed="0.00" departDelay="39.00" arrival="254.00" arrivalLane="end_1" arrivalPos="200.00" arrivalSpeed="9.29" duration="158.00" routeLength="497.80" waitSteps="85" timeLoss="104.16" rerouteNo="0" devices="tripinfo_mixed.57" vType="moped" vaporized=""/>
    <tripinfo id="mixed.67" depart="112.00" departLane="beg_1" departPos="2.20" departSpeed="0.00" departDelay="45.00" arrival="255.00" arrivalLane="end_1" arrivalPos="200.00" arrivalSpeed="13.23" duration="143.00" routeLength="497.80" waitSteps="79" timeLoss="112.54" rerouteNo="0" devices="tripinfo_mixed.67" vType="moped" vaporized=""/>
    <tripinfo id="mixed.1" depart="1.00" departLane="beg_1" departPos="2.20" departSpeed="0.00" departDelay="0.00" arrival="256.00" arrivalLane="end_0" arrivalPos="200.00" arrivalSpeed="4.83" duration="255.00" routeLength="497.80" waitSteps="141" timeLoss="154.29" rerouteNo="0" devices="tripinfo_mixed.1" vType="moped" vaporized=""/>
    <tripinfo id="mixed.26" depart="41.00" departLane="beg_0" departPos="2.20" departSpeed="0.00" departDelay="15.00" arrival="257.00" arrivalLane="end_0" arrivalPos="200.00" arrivalSpeed="12.20" duration="216.00" routeLength="497.80" waitSteps="136" timeLoss="182.23" rerouteNo="0" devices="tripinfo_mixed.26" vType="moped" vaporized=""/>
    <tripinfo id="mixed.47" depart="77.00" departLane="beg_1" departPos="2.20" departSpeed="0.00" departDelay="30.00" arrival="258.00" arrivalLane="end_1" arrivalPos="200.00" arrivalSpeed="12.30" duration="181.00" routeLength="497.80" waitSteps="102" timeLoss="144.58" rerouteNo="0" devices="tripinfo_mixed.47" vType="moped" vaporized=""/>
    <tripinfo id="mixed.59" depart="101.00" departLane="beg_1" departPos="2.20" departSpeed="0.00" departDelay="42.00" arrival="260.00" arrivalLane="end_1" arrivalPos="200.00" arrivalSpeed="7.87" duration="159.00" routeLength="497.80" waitSteps="75" timeLoss="97.65" rerouteNo="0" devices="tripinfo_mixed.59" vType="moped" vaporized=""/>
    <tripinfo id="mixed.36" depart="57.00" departLane="beg_0" departPos="2.20" departSpeed="0.00" departDelay="21.00" arrival="261.00" arrivalLane="end_0" arrivalPos="200.00" arrivalSpeed="6.79" duration="204.00" routeLength="497.80" waitSteps="117" timeLoss="132.85" rerouteNo="0" devices="tripinfo_mixed.36" vType="moped" vaporized=""/>
    <tripinfo id="mixed.71" depart="120.00" departLane="beg_1" departPos="5.10" departSpeed="0.00" departDelay="49.00" arrival="262.00" arrivalLane="end_1" arrivalPos="200.00" arrivalSpeed="12.12" duration="142.00" routeLength="494.90" waitSteps="69" timeLoss="113.61" rerouteNo="0" devices="tripinfo_mixed.71" vType="car" vaporized=""/>
    <tripinfo id="mixed.51" depart="82.00" departLane="beg_0" departPos="2.20" departSpeed="0.00" departDelay="31.00" arrival="263.00" arrivalLane="end_0" arrivalPos="200.00" arrivalSpeed="8.85" duration="181.00" routeLength="497.80" waitSteps="99" timeLoss="134.83" rerouteNo="0" devices="tripinfo_mixed.51" vType="moped" vaporized=""/>
    <tripinfo id="mixed.2" depart="2.00" departLane="beg_0" departPos="2.20" departSpeed="0.00" departDelay="0.00" arrival="263.00" arrivalLane="end_0" arrivalPos="200.00" arrivalSpeed="4.39" duration="261.00" routeLength="497.80" waitSteps="136" timeLoss="149.74" rerouteNo="0" devices="tripinfo_mixed.2" vType="moped" vaporized=""/>
    <tripinfo id="mixed.61" depart="104.00" departLane="beg_1" departPos="2.20" departSpeed="0.00" departDelay="43.00" arrival="264.00" arrivalLane="end_0" arrivalPos="200.00" arrivalSpeed="8.75" duration="160.00" routeLength="497.80" waitSteps="91" timeLoss="129.83" rerouteNo="0" devices="tripinfo_mixed.61" vType="moped" vaporized=""/>
    <tripinfo id="mixed.78" depart="131.00" departLane="beg_1" departPos="5.10" departSpeed="0.00" departDelay="53.00" arrival="264.00" arrivalLane="end_1" arrivalPos="200.00" arrivalSpeed="12.93" duration="133.00" routeLength="494.90" waitSteps="61" timeLoss="98.79" rerouteNo="0" devices="tripinfo_mixed.78" vType="car" vaporized=""/>
    <tripinfo id="mixed.31" depart="48.00" departLane="beg_1" departPos="2.20" departSpeed="0.00" departDelay="17.00" arrival="265.00" arrivalLane="end_0" arrivalPos="200.00" arrivalSpeed="5.92" duration="217.00" routeLength="497.80" waitSteps="133" timeLoss="186.78" rerouteNo="0" devices="tripinfo_mixed.31" vType="moped" vaporized=""/>
    <tripinfo id="mixed.79" depart="134.00" departLane="beg_0" departPos="5.10" departSpeed="0.00" departDelay="55.00" arrival="265.00" arrivalLane="end_1" arrivalPos="200.00" arrivalSpeed="11.32" duration="131.00" routeLength="494.90" waitSteps="61" timeLoss="93.58" rerouteNo="0" devices="tripinfo_mixed.79" vType="car" vaporized=""/>
    <tripinfo id="mixed.34" depart="54.00" departLane="beg_0" departPos="5.10" departSpeed="0.00" departDelay="20.00" arrival="266.00" arrivalLane="end_0" arrivalPos="200.00" arrivalSpeed="8.22" duration="212.00" routeLength="494.90" waitSteps="125" timeLoss="167.14" rerouteNo="0" devices="tripinfo_mixed.34" vType="car" vaporized=""/>
    <tripinfo id="mixed.63" depart="104.00" departLane="beg_1" departPos="2.20" departSpeed="0.00" departDelay="41.00" arrival="266.00" arrivalLane="end_1" arrivalPos="200.00" arrivalSpeed="11.02" duration="162.00" routeLength="497.80" waitSteps="90" timeLoss="122.12" rerouteNo="0" devices="tripinfo_mixed.63" vType="moped" vaporized=""/>
    <tripinfo id="mixed.62" depart="104.00" departLane="beg_0" departPos="2.20" departSpeed="0.00" departDelay="42.00" arrival="267.00" arrivalLane="end_0" arrivalPos="200.00" arrivalSpeed="11.19" duration="163.00" routeLength="497.80" waitSteps="89" timeLoss="122.80" rerouteNo="0" devices="tripinfo_mixed.62" vType="moped" vaporized=""/>
    <tripinfo id="mixed.85" depart="146.00" departLane="beg_1" departPos="2.20" departSpeed="0.00" departDelay="61.00" arrival="267.00" arrivalLane="end_1" arrivalPos="200.00" arrivalSpeed="12.14" duration="121.00" routeLength="497.80" waitSteps="47" timeLoss="79.90" rerouteNo="0" devices="tripinfo_mixed.85" vType="moped" vaporized=""/>
    <tripinfo id="mixed.89" depart="150.00" departLane="beg_1" departPos="2.20" departSpeed="0.00" departDelay="61.00" arrival="267.00" arrivalLane="end_1" arrivalPos="200.00" arrivalSpeed="11.28" duration="117.00" routeLength="497.80" waitSteps="44" timeLoss="77.28" rerouteNo="0" devices="tripinfo_mixed.89" vType="moped" vaporized=""/>
    <tripinfo id="mixed.52" depart="86.00" departLane="beg_0" departPos="5.10" departSpeed="0.00" departDelay="34.00" arrival="268.00" arrivalLane="end_0" arrivalPos="200.00" arrivalSpeed="9.59" duration="182.00" routeLength="494.90" waitSteps="104" timeLoss="147.59" rerouteNo="0" devices="tripinfo_mixed.52" vType="car" vaporized=""/>
    <tripinfo id="mixed.68" depart="113.00" departLane="beg_0" departPos="2.20" departSpeed="0.00" departDelay="45.00" arrival="269.00" arrivalLane="end_0" arrivalPos="200.00" arrivalSpeed="11.71" duration="156.00" routeLength="497.80" waitSteps="82" timeLoss="125.42" rerouteNo="0" devices="tripinfo_mixed.68" vType="moped" vaporized=""/>
    <tripinfo id="mixed.84" depart="144.00" departLane="beg_1" departPos="5.10" departSpeed="0.00" departDelay="60.00" arrival="269.00" arrivalLane="end_1" arrivalPos="200.00" arrivalSpeed="13.26" duration="125.00" routeLength="494.90" waitSteps="52" timeLoss="94.74" rerouteNo="0" devices="tripinfo_mixed.84" vType="car" vaporized=""/>
    <tripinfo id="mixed.50" depart="82.00" departLane="beg_1" departPos="2.20" departSpeed="0.00" departDelay="32.00" arrival="270.00" arrivalLane="end_0" arrivalPos="200.00" arrivalSpeed="8.24" duration="188.00" routeLength="497.80" waitSteps="105" timeLoss="130.71" rerouteNo="0" devices="tripinfo_mixed.50" vType="moped" vaporized=""/>
    <tripinfo id="mixed.73" depart="124.00" departLane="beg_1" departPos="2.20" departSpeed="0.00" departDelay="51.00" arrival="270.00" arrivalLane="end_1" arrivalPos="200.00" arrivalSpeed="11.15" duration="146.00" routeLength="497.80" waitSteps="74" timeLoss="115.80" rerouteNo="0" devices="tripinfo_mixed.73" vType="moped" vaporized=""/>
    <tripinfo id="mixed.65" depart="111.00" departLane="beg_0" departPos="2.20" departSpeed="0.00" departDelay="46.00" arrival="271.00" arrivalLane="end_0" arrivalPos="200.00" arrivalSpeed="9.31" duration="160.00" routeLength="497.80" waitSteps="84" timeLoss="113.08" rerouteNo="0" devices="tripinfo_mixed.65" vType="moped" vaporized=""/>
    <tripinfo id="mixed.96" depart="161.00" departLane="beg_1" departPos="5.10" departSpeed="0.00" departDelay="65.00" arrival="271.00" arrivalLane="end_1" arrivalPos="200.00" arrivalSpeed="14.90" duration="110.00" routeLength="494.90" waitSteps="40" timeLoss="80.53" rerouteNo="0" devices="tripinfo_mixed.96" vType="car" vaporized=""/>
    <tripinfo id="mixed.70" depart="117.00" departLane="beg_1" departPos="5.10" departSpeed="0.00" departDelay="47.00" arrival="272.00" arrivalLane="end_0" arrivalPos="200.00" arrivalSpeed="10.43" duration="155.00" routeLength="494.90" waitSteps="78" timeLoss="110.81" rerouteNo="0" devices="tripinfo_mixed.70" vType="car" vaporized=""/>
    <tripinfo id="mixed.87" depart="146.00" departLane="beg_1" departPos="2.20" departSpeed="0.00" departDelay="59.00" arrival="272.00" arrivalLane="end_1" arrivalPos="200.00" arrivalSpeed="12.56" duration="126.00" routeLength="497.80" waitSteps="46" timeLoss="95.33" rerouteNo="0" devices="tripinfo_mixed.87" vType="moped" vaporized=""/>
    <tripinfo id="mixed.95" depart="161.00" departLane="beg_0" departPos="5.10" departSpeed="0.00" departDelay="66.00" arrival="273.00" arrivalLane="end_1" arrivalPos="200.00" arrivalSpeed="13.70" duration="112.00" routeLength="494.90" waitSteps="41" timeLoss="75.70" rerouteNo="0" devices="tripinfo_mixed.95" vType="car" vaporized=""/>
    <tripinfo id="mixed.83" depart="141.00" departLane="beg_0" departPos="2.20" departSpeed="0.00" departDelay="58.00" arrival="273.00" arrivalLane="end_1" arrivalPos="200.00" arrivalSpeed="11.49" duration="132.00" routeLength="497.80" waitSteps="49" timeLoss="98.63" rerouteNo="0" devices="tripinfo_mixed.83" vType="moped" vaporized=""/>
    <tripinfo id="mixed.94" depart="157.00" departLane="beg_1" departPos="2.20" departSpeed="0.00" departDelay="63.00" arrival="274.00" arrivalLane="end_0" arrivalPos="200.00" arrivalSpeed="9.92" duration="117.00" routeLength="497.80" waitSteps="35" timeLoss="85.02" rerouteNo="0" devices="tripinfo_mixed.94" vType="moped" vaporized=""/>
    <tripinfo id="mixed.97" depart="164.00" departLane="beg_1" departPos="2.20" departSpeed="0.00" departDelay="67.00" arrival="274.00" arrivalLane="end_1" arrivalPos="200.00" arrivalSpeed="12.45" duration="110.00" routeLength="497.80" waitSteps="33" timeLoss="80.05" rerouteNo="0" devices="tripinfo_mixed.97" vType="moped" vaporized=""/>
    <tripinfo id="mixed.86" depart="146.00" departLane="beg_0" departPos="2.20" departSpeed="0.00" departDelay="60.00" arrival="275.00" arrivalLane="end_1" arrivalPos="200.00" arrivalSpeed="12.20" duration="129.00" routeLength="497.80" waitSteps="45" timeLoss="98.40" rerouteNo="0" devices="tripinfo_mixed.86" vType="moped" vaporized=""/>
    <tripinfo id="mixed.53" depart="89.00" departLane="beg_1" departPos="2.20" departSpeed="0.00" departDelay="36.00" arrival="276.00" arrivalLane="end_0" arrivalPos="200.00" arrivalSpeed="9.41" duration="187.00" routeLength="497.80" waitSteps="92" timeLoss="135.99" rerouteNo="0" devices="tripinfo_mixed.53" vType="moped" vaporized=""/>
    <tripinfo id="mixed.98" depart="164.00" departLane="beg_0" departPos="5.10" departSpeed="0.00" departDelay="66.00" arrival="276.00" arrivalLane="end_1" arrivalPos="200.00" arrivalSpeed="12.88" duration="112.00" routeLength="494.90" waitSteps="38" timeLoss="78.42" rerouteNo="0" devices="tripinfo_mixed.98" vType="car" vaporized=""/>
    <tripinfo id="mixed.46" depart="77.00" departLane="beg_0" departPos="2.20" departSpeed="0.00" departDelay="31.00" arrival="277.00" arrivalLane="end_0" arrivalPos="200.00" arrivalSpeed="11.49" duration="200.00" routeLength="497.80" waitSteps="106" timeLoss="169.94" rerouteNo="0" devices="tripinfo_mixed.46" vType="moped" vaporized=""/>
    <tripinfo id="mixed.29" depart="45.00" departLane="beg_0" departPos="2.20" departSpeed="0.00" departDelay="16.00" arrival="278.00" arrivalLane="end_0" arrivalPos="200.00" arrivalSpeed="4.64" duration="233.00" routeLength="497.80" waitSteps="113" timeLoss="126.92" rerouteNo="0" devices="tripinfo_mixed.29" vType="moped" vaporized=""/>
    <tripinfo id="mixed.80" depart="134.00" departLane="beg_1" departPos="2.20" departSpeed="0.00" departDelay="54.00" arrival="278.00" arrivalLane="end_1" arrivalPos="200.00" arrivalSpeed="13.27" duration="144.00" routeLength="497.80" waitSteps="60" timeLoss="113.71" rerouteNo="0" devices="tripinfo_mixed.80" vType="moped" vaporized=""/>
    <tripinfo id="mixed.92" depart="155.00" departLane="beg_1" departPos="5.10" departSpeed="0.00" departDelay="63.00" arrival="278.00" arrivalLane="end_1" arrivalPos="200.00" arrivalSpeed="14.37" duration="123.00" routeLength="494.90" waitSteps="46" timeLoss="88.55" rerouteNo="0" devices="tripinfo_mixed.92" vType="car" vaporized=""/>
    <tripinfo id="mixed.77" depart="128.00" departLane="beg_0" departPos="2.20" departSpeed="0.00" departDelay="51.00" arrival="279.00" arrivalLane="end_0" arrivalPos="200.00" arrivalSpeed="12.69" duration="151.00" routeLength="497.80" waitSteps="64" timeLoss="120.55" rerouteNo="0" devices="tripinfo_mixed.77" vType="moped" vaporized=""/>
    <tripinfo id="mixed.43" depart="73.00" departLane="beg_1" departPos="2.20" departSpeed="0.00" departDelay="30.00" arrival="280.00" arrivalLane="end_0" arrivalPos="200.00" arrivalSpeed="6.33" duration="207.00" routeLength="497.80" waitSteps="112" timeLoss="164.16" rerouteNo="0" devices="tripinfo_mixed.43" vType="moped" vaporized=""/>
    <tripinfo id="mixed.72" depart="120.00" departLane="beg_0" departPos="2.20" departSpeed="0.00" departDelay="48.00" arrival="280.00" arrivalLane="end_0" arrivalPos="200.00" arrivalSpeed="12.93" duration="160.00" routeLength="497.80" waitSteps="80" timeLoss="129.85" rerouteNo="0" devices="tripinfo_mixed.72" vType="moped" vaporized=""/>
    <tripinfo id="mixed.91" depart="152.00" departLane="beg_0" departPos="2.20" departSpeed="0.00" departDelay="61.00" arrival="280.00" arrivalLane="end_1" arrivalPos="200.00" arrivalSpeed="13.83" duration="128.00" routeLength="497.80" waitSteps="44" timeLoss="95.66" rerouteNo="0" devices="tripinfo_mixed.91" vType="moped" vaporized=""/>