<?xml version="1.0" encoding="UTF-8"?>

<!-- generated on Thu Feb  4 13:22:26 2016 by SUMO Version dev-SVN-r19881
<?xml version="1.0" encoding="UTF-8"?>

<configuration xmlns:xsi="http://www.w3.org/2001/XMLSchema-instance" xsi:noNamespaceSchemaLocation="http://sumo.dlr.de/xsd/sumoConfiguration.xsd">

    <input>
        <net-file value="net.net.xml"/>
        <route-files value="input_routes.rou.xml"/>
    </input>

    <output>
        <tripinfo-output value="tripinfos.xml"/>
    </output>

    <processing>
        <lateral-resolution value="0.64"/>
    </processing>

    <report>
        <xml-validation value="never"/>
        <no-step-log value="true"/>
    </report>

</configuration>
-->

<tripinfos xmlns:xsi="http://www.w3.org/2001/XMLSchema-instance" xsi:noNamespaceSchemaLocation="http://sumo.dlr.de/xsd/tripinfo_file.xsd">
    <tripinfo id="mixed.8" depart="10.00" departLane="beg_0" departPos="5.10" departSpeed="0.00" departDelay="2.00" arrival="215.00" arrivalLane="end_0" arrivalPos="200.00" arrivalSpeed="16.98" duration="205.00" routeLength="494.90" waitSteps="163" timeLoss="176.06" rerouteNo="0" devices="tripinfo_mixed.8" vType="car" vaporized=""/>
    <tripinfo id="mixed.5" depart="6.00" departLane="beg_0" departPos="5.10" departSpeed="0.00" departDelay="1.00" arrival="217.00" arrivalLane="end_0" arrivalPos="200.00" arrivalSpeed="13.30" duration="211.00" routeLength="494.90" waitSteps="160" timeLoss="175.89" rerouteNo="0" devices="tripinfo_mixed.5" vType="car" vaporized=""/>
    <tripinfo id="mixed.11" depart="17.00" departLane="beg_0" departPos="5.10" departSpeed="0.00" departDelay="6.00" arrival="218.00" arrivalLane="end_0" arrivalPos="200.00" arrivalSpeed="14.13" duration="201.00" routeLength="494.90" waitSteps="153" timeLoss="168.07" rerouteNo="0" devices="tripinfo_mixed.11" vType="car" vaporized=""/>
    <tripinfo id="mixed.3" depart="4.00" departLane="beg_1" departPos="2.20" departSpeed="0.00" departDelay="1.00" arrival="222.00" arrivalLane="end_0" arrivalPos="200.00" arrivalSpeed="13.29" duration="218.00" routeLength="497.80" waitSteps="162" timeLoss="180.80" rerouteNo="0" devices="tripinfo_mixed.3" vType="moped" vaporized=""/>
    <tripinfo id="mixed.6" depart="7.00" departLane="beg_1" departPos="2.20" departSpeed="0.00" departDelay="1.00" arrival="222.00" arrivalLane="end_0" arrivalPos="200.00" arrivalSpeed="16.47" duration="215.00" routeLength="497.80" waitSteps="159" timeLoss="184.61" rerouteNo="0" devices="tripinfo_mixed.6" vType="moped" vaporized=""/>
    <tripinfo id="mixed.0" depart="0.00" departLane="beg_0" departPos="2.20" departSpeed="0.00" departDelay="0.00" arrival="225.00" arrivalLane="end_0" arrivalPos="200.00" arrivalSpeed="10.17" duration="225.00" routeLength="497.80" waitSteps="163" timeLoss="176.93" rerouteNo="0" devices="tripinfo_mixed.0" vType="moped" vaporized=""/>
    <tripinfo id="mixed.14" depart="20.00" departLane="beg_1" departPos="2.20" departSpeed="0.00" departDelay="6.00" arrival="225.00" arrivalLane="end_0" arrivalPos="200.00" arrivalSpeed="14.12" duration="205.00" routeLength="497.80" waitSteps="150" timeLoss="169.96" rerouteNo="0" devices="tripinfo_mixed.14" vType="moped" vaporized=""/>
    <tripinfo id="mixed.13" depart="20.00" departLane="beg_0" departPos="2.20" departSpeed="0.00" departDelay="7.00" arrival="226.00" arrivalLane="end_1" arrivalPos="200.00" arrivalSpeed="16.15" duration="206.00" routeLength="497.80" waitSteps="147" timeLoss="175.39" rerouteNo="0" devices="tripinfo_mixed.13" vType="moped" vaporized=""/>
    <tripinfo id="mixed.9" depart="13.00" departLane="beg_0" departPos="5.10" departSpeed="0.00" departDelay="4.00" arrival="227.00" arrivalLane="end_0" arrivalPos="200.00" arrivalSpeed="10.13" duration="214.00" routeLength="494.90" waitSteps="155" timeLoss="169.03" rerouteNo="0" devices="tripinfo_mixed.9" vType="car" vaporized=""/>
    <tripinfo id="mixed.20" depart="34.00" departLane="beg_0" departPos="5.10" departSpeed="0.00" departDelay="14.00" arrival="228.00" arrivalLane="end_1" arrivalPos="200.00" arrivalSpeed="16.84" duration="194.00" routeLength="494.90" waitSteps="145" timeLoss="165.03" rerouteNo="0" devices="tripinfo_mixed.20" vType="car" vaporized=""/>
    <tripinfo id="mixed.10" depart="13.00" departLane="beg_1" departPos="2.20" departSpeed="0.00" departDelay="3.00" arrival="229.00" arrivalLane="end_0" arrivalPos="200.00" arrivalSpeed="9.67" duration="216.00" routeLength="497.80" waitSteps="151" timeLoss="164.66" rerouteNo="0" devices="tripinfo_mixed.10" vType="moped" vaporized=""/>
    <tripinfo id="mixed.7" depart="9.00" departLane="beg_1" departPos="2.20" departSpeed="0.00" departDelay="2.00" arrival="230.00" arrivalLane="end_0" arrivalPos="200.00" arrivalSpeed="9.21" duration="221.00" routeLength="497.80" waitSteps="152" timeLoss="168.82" rerouteNo="0" devices="tripinfo_mixed.7" vType="moped" vaporized=""/>
    <tripinfo id="mixed.23" depart="37.00" departLane="beg_0" departPos="2.20" departSpeed="0.00" departDelay="14.00" arrival="230.00" arrivalLane="end_1" arrivalPos="200.00" arrivalSpeed="16.63" duration="193.00" routeLength="497.80" waitSteps="139" timeLoss="162.31" rerouteNo="0" devices="tripinfo_mixed.23" vType="moped" vaporized=""/>
    <tripinfo id="mixed.17" depart="28.00" departLane="beg_1" departPos="5.10" departSpeed="0.00" departDelay="11.00" arrival="231.00" arrivalLane="end_0" arrivalPos="200.00" arrivalSpeed="11.44" duration="203.00" routeLength="494.90" waitSteps="145" timeLoss="167.30" rerouteNo="0" devices="tripinfo_mixed.17" vType="car" vaporized=""/>
    <tripinfo id="mixed.12" depart="19.00" departLane="beg_1" departPos="2.20" departSpeed="0.00" departDelay="7.00" arrival="232.00" arrivalLane="end_0" arrivalPos="200.00" arrivalSpeed="10.08" duration="213.00" routeLength="497.80" waitSteps="147" timeLoss="163.97" rerouteNo="0" devices="tripinfo_mixed.12" vType="moped" vaporized=""/>
    <tripinfo id="mixed.15" depart="23.00" departLane="beg_0" departPos="2.20" departSpeed="0.00" departDelay="8.00" arrival="233.00" arrivalLane="end_0" arrivalPos="200.00" arrivalSpeed="11.34" duration="210.00" routeLength="497.80" waitSteps="140" timeLoss="177.53" rerouteNo="0" devices="tripinfo_mixed.15" vType="moped" vaporized=""/>
    <tripinfo id="mixed.19" depart="31.00" departLane="beg_1" departPos="5.10" departSpeed="0.00" departDelay="12.00" arrival="233.00" arrivalLane="end_1" arrivalPos="200.00" arrivalSpeed="14.67" duration="202.00" routeLength="494.90" waitSteps="145" timeLoss="167.51" rerouteNo="0" devices="tripinfo_mixed.19" vType="car" vaporized=""/>
    <tripinfo id="mixed.24" depart="39.00" departLane="beg_1" departPos="2.20" departSpeed="0.00" departDelay="15.00" arrival="233.00" arrivalLane="end_1" arrivalPos="200.00" arrivalSpeed="13.36" duration="194.00" routeLength="497.80" waitSteps="136" timeLoss="156.72" rerouteNo="0" devices="tripinfo_mixed.24" vType="moped" vaporized=""/>
    <tripinfo id="mixed.31" depart="49.00" departLane="beg_1" departPos="2.20" departSpeed="0.00" departDelay="18.00" arrival="234.00" arrivalLane="end_1" arrivalPos="200.00" arrivalSpeed="13.96" duration="185.00" routeLength="497.80" waitSteps="130" timeLoss="154.86" rerouteNo="0" devices="tripinfo_mixed.31" vType="moped" vaporized=""/>
    <tripinfo id="mixed.4" depart="4.00" departLane="beg_0" departPos="2.20" departSpeed="0.00" departDelay="0.00" arrival="235.00" arrivalLane="end_0" arrivalPos="200.00" arrivalSpeed="7.22" duration="231.00" routeLength="497.80" waitSteps="151" timeLoss="165.12" rerouteNo="0" devices="tripinfo_mixed.4" vType="moped" vaporized=""/>
    <tripinfo id="mixed.18" depart="30.00" departLane="beg_0" departPos="5.10" departSpeed="0.00" departDelay="12.00" arrival="236.00" arrivalLane="end_1" arrivalPos="200.00" arrivalSpeed="9.52" duration="206.00" routeLength="494.90" waitSteps="141" timeLoss="157.48" rerouteNo="0" devices="tripinfo_mixed.18" vType="car" vaporized=""/>
    <tripinfo id="mixed.21" depart="34.00" departLane="beg_1" departPos="5.10" departSpeed="0.00" departDelay="13.00" arrival="237.00" arrivalLane="end_0" arrivalPos="200.00" arrivalSpeed="10.91" duration="203.00" routeLength="494.90" waitSteps="133" timeLoss="157.42" rerouteNo="0" devices="tripinfo_mixed.21" vType="car" vaporized=""/>
    <tripinfo id="mixed.28" depart="47.00" departLane="beg_0" departPos="2.20" departSpeed="0.00" departDelay="19.00" arrival="237.00" arrivalLane="end_1" arrivalPos="200.00" arrivalSpeed="16.65" duration="190.00" routeLength="497.80" waitSteps="129" timeLoss="159.13" rerouteNo="0" devices="tripinfo_mixed.28" vType="moped" vaporized=""/>
    <tripinfo id="mixed.25" depart="42.00" departLane="beg_0" departPos="5.10" departSpeed="0.00" departDelay="17.00" arrival="238.00" arrivalLane="end_1" arrivalPos="200.00" arrivalSpeed="12.49" duration="196.00" routeLength="494.90" waitSteps="136" timeLoss="157.03" rerouteNo="0" devices="tripinfo_mixed.25" vType="car" vaporized=""/>
    <tripinfo id="mixed.39" depart="62.00" departLane="beg_0" departPos="2.20" departSpeed="0.00" departDelay="23.00" arrival="238.00" arrivalLane="end_1" arrivalPos="200.00" arrivalSpeed="16.45" duration="176.00" routeLength="497.80" waitSteps="111" timeLoss="145.23" rerouteNo="0" devices="tripinfo_mixed.39" vType="moped" vaporized=""/>
    <tripinfo id="mixed.46" depart="74.00" departLane="beg_1" departPos="2.20" departSpeed="0.00" departDelay="28.00" arrival="239.00" arrivalLane="end_1" arrivalPos="200.00" arrivalSpeed="16.58" duration="165.00" routeLength="497.80" waitSteps="110" timeLoss="134.98" rerouteNo="0" devices="tripinfo_mixed.46" vType="moped" vaporized=""/>
    <tripinfo id="mixed.26" depart="44.00" departLane="beg_1" departPos="2.20" departSpeed="0.00" departDelay="18.00" arrival="240.00" arrivalLane="end_0" arrivalPos="200.00" arrivalSpeed="13.27" duration="196.00" routeLength="497.80" waitSteps="133" timeLoss="161.90" rerouteNo="0" devices="tripinfo_mixed.26" vType="moped" vaporized=""/>
    <tripinfo id="mixed.16" depart="23.00" departLane="beg_1" departPos="2.20" departSpeed="0.00" departDelay="7.00" arrival="240.00" arrivalLane="end_0" arrivalPos="200.00" arrivalSpeed="7.68" duration="217.00" routeLength="497.80" waitSteps="139" timeLoss="152.65" rerouteNo="0" devices="tripinfo_mixed.16" vType="moped" vaporized=""/>
    <tripinfo id="mixed.34" depart="58.00" departLane="beg_1" departPos="5.10" departSpeed="0.00" departDelay="24.00" arrival="241.00" arrivalLane="end_1" arrivalPos="200.00" arrivalSpeed="10.39" duration="183.00" routeLength="494.90" waitSteps="122" timeLoss="137.63" rerouteNo="0" devices="tripinfo_mixed.34" vType="car" vaporized=""/>
    <tripinfo id="mixed.30" depart="48.00" departLane="beg_1" departPos="2.20" departSpeed="0.00" departDelay="18.00" arrival="242.00" arrivalLane="end_0" arrivalPos="200.00" arrivalSpeed="9.87" duration="194.00" routeLength="497.80" waitSteps="129" timeLoss="161.47" rerouteNo="0" devices="tripinfo_mixed.30" vType="moped" vaporized=""/>
    <tripinfo id="mixed.37" depart="61.00" departLane="beg_0" departPos="2.20" departSpeed="0.00" departDelay="24.00" arrival="242.00" arrivalLane="end_0" arrivalPos="200.00" arrivalSpeed="14.03" duration="181.00" routeLength="497.80" waitSteps="121" timeLoss="150.56" rerouteNo="0" devices="tripinfo_mixed.37" vType="moped" vaporized=""/>
    <tripinfo id="mixed.40" depart="62.00" departLane="beg_0" departPos="2.20" departSpeed="0.00" departDelay="22.00" arrival="242.00" arrivalLane="end_1" arrivalPos="200.00" arrivalSpeed="10.50" duration="180.00" routeLength="497.80" waitSteps="118" timeLoss="144.44" rerouteNo="0" devices="tripinfo_mixed.40" vType="moped" vaporized=""/>
    <tripinfo id="mixed.47" depart="75.00" departLane="beg_0" departPos="2.20" departSpeed="0.00" departDelay="28.00" arrival="242.00" arrivalLane="end_1" arrivalPos="200.00" arrivalSpeed="12.54" duration="167.00" routeLength="497.80" waitSteps="106" timeLoss="130.68" rerouteNo="0" devices="tripinfo_mixed.47" vType="moped" vaporized=""/>
    <tripinfo id="mixed.38" depart="62.00" departLane="beg_1" departPos="2.20" departSpeed="0.00" departDelay="24.00" arrival="243.00" arrivalLane="end_0" arrivalPos="200.00" arrivalSpeed="12.83" duration="181.00" routeLength="497.80" waitSteps="120" timeLoss="151.05" rerouteNo="0" devices="tripinfo_mixed.38" vType="moped" vaporized=""/>
    <tripinfo id="mixed.44" depart="70.00" departLane="beg_1" departPos="5.10" departSpeed="0.00" departDelay="26.00" arrival="244.00" arrivalLane="end_1" arrivalPos="200.00" arrivalSpeed="13.29" duration="174.00" routeLength="494.90" waitSteps="111" timeLoss="139.67" rerouteNo="0" devices="tripinfo_mixed.44" vType="car" vaporized=""/>
    <tripinfo id="mixed.45" depart="72.00" departLane="beg_0" departPos="5.10" departSpeed="0.00" departDelay="27.00" arrival="244.00" arrivalLane="end_1" arrivalPos="200.00" arrivalSpeed="13.72" duration="172.00" routeLength="494.90" waitSteps="101" timeLoss="135.91" rerouteNo="0" devices="tripinfo_mixed.45" vType="car" vaporized=""/>
    <tripinfo id="mixed.22" depart="35.00" departLane="beg_1" departPos="2.20" departSpeed="0.00" departDelay="13.00" arrival="245.00" arrivalLane="end_0" arrivalPos="200.00" arrivalSpeed="15.88" duration="210.00" routeLength="497.80" waitSteps="137" timeLoss="179.62" rerouteNo="0" devices="tripinfo_mixed.22" vType="moped" vaporized=""/>
    <tripinfo id="mixed.43" depart="68.00" departLane="beg_0" departPos="2.20" departSpeed="0.00" departDelay="25.00" arrival="247.00" arrivalLane="end_0" arrivalPos="200.00" arrivalSpeed="11.70" duration="179.00" routeLength="497.80" waitSteps="108" timeLoss="136.33" rerouteNo="0" devices="tripinfo_mixed.43" vType="moped" vaporized=""/>
    <tripinfo id="mixed.27" depart="44.00" departLane="beg_0" departPos="2.20" departSpeed="0.00" departDelay="17.00" arrival="249.00" arrivalLane="end_0" arrivalPos="200.00" arrivalSpeed="10.36" duration="205.00" routeLength="497.80" waitSteps="131" timeLoss="157.13" rerouteNo="0" devices="tripinfo_mixed.27" vType="moped" vaporized=""/>
    <tripinfo id="mixed.51" depart="82.00" departLane="beg_0" departPos="2.20" departSpeed="0.00" departDelay="31.00" arrival="249.00" arrivalLane="end_1" arrivalPos="200.00" arrivalSpeed="10.51" duration="167.00" routeLength="497.80" waitSteps="97" timeLoss="120.86" rerouteNo="0" devices="tripinfo_mixed.51" vType="moped" vaporized=""/>
    <tripinfo id="mixed.54" depart="89.00" departLane="beg_1" departPos="5.10" departSpeed="0.00" departDelay="35.00" arrival="249.00" arrivalLane="end_1" arrivalPos="200.00" arrivalSpeed="14.75" duration="160.00" routeLength="494.90" waitSteps="101" timeLoss="126.90" rerouteNo="0" devices="tripinfo_mixed.54" vType="car" vaporized=""/>
    <tripinfo id="mixed.35" depart="58.00" departLane="beg_0" departPos="2.20" departSpeed="0.00" departDelay="23.00" arrival="250.00" arrivalLane="end_0" arrivalPos="200.00" arrivalSpeed="11.19" duration="192.00" routeLength="497.80" waitSteps="124" timeLoss="158.58" rerouteNo="0" devices="tripinfo_mixed.35" vType="moped" vaporized=""/>
    <tripinfo id="mixed.56" depart="93.00" departLane="beg_1" departPos="5.10" departSpeed="0.00" departDelay="37.00" arrival="250.00" arrivalLane="end_1" arrivalPos="200.00" arrivalSpeed="14.10" duration="157.00" routeLength="494.90" waitSteps="98" timeLoss="123.26" rerouteNo="0" devices="tripinfo_mixed.56" vType="car" vaporized=""/>
    <tripinfo id="mixed.32" depart="53.00" departLane="beg_1" departPos="5.10" departSpeed="0.00" departDelay="21.00" arrival="252.00" arrivalLane="end_0" arrivalPos="200.00" arrivalSpeed="14.05" duration="199.00" routeLength="494.90" waitSteps="130" timeLoss="165.13" rerouteNo="0" devices="tripinfo_mixed.32" vType="car" vaporized=""/>
    <tripinfo id="mixed.41" depart="65.00" departLane="beg_0" departPos="2.20" departSpeed="0.00" departDelay="24.00" arrival="252.00" arrivalLane="end_1" arrivalPos="200.00" arrivalSpeed="15.49" duration="187.00" routeLength="497.80" waitSteps="111" timeLoss="156.15" rerouteNo="0" devices="tripinfo_mixed.41" vType="moped" vaporized=""/>
    <tripinfo id="mixed.64" depart="106.00" departLane="beg_0" departPos="5.10" departSpeed="0.00" departDelay="42.00" arrival="252.00" arrivalLane="end_1" arrivalPos="200.00" arrivalSpeed="13.27" duration="146.00" routeLength="494.90" waitSteps="84" timeLoss="110.50" rerouteNo="0" devices="tripinfo_mixed.64" vType="car" vaporized=""/>
    <tripinfo id="mixed.1" depart="1.00" departLane="beg_1" departPos="2.20" departSpeed="0.00" departDelay="0.00" arrival="254.00" arrivalLane="end_0" arrivalPos="200.00" arrivalSpeed="4.61" duration="253.00" routeLength="497.80" waitSteps="141" timeLoss="152.30" rerouteNo="0" devices="tripinfo_mixed.1" vType="moped" vaporized=""/>
    <tripinfo id="mixed.71" depart="119.00" departLane="beg_1" departPos="5.10" departSpeed="0.00" departDelay="48.00" arrival="254.00" arrivalLane="end_0" arrivalPos="200.00" arrivalSpeed="16.81" duration="135.00" routeLength="494.90" waitSteps="78" timeLoss="106.48" rerouteNo="0" devices="tripinfo_mixed.71" vType="car" vaporized=""/>
    <tripinfo id="mixed.74" depart="124.00" departLane="beg_0" departPos="2.20" departSpeed="0.00" departDelay="50.00" arrival="257.00" arrivalLane="end_1" arrivalPos="200.00" arrivalSpeed="12.10" duration="133.00" routeLength="497.80" waitSteps="69" timeLoss="91.27" rerouteNo="0" devices="tripinfo_mixed.74" vType="moped" vaporized=""/>
    <tripinfo id="mixed.70" depart="118.00" departLane="beg_0" departPos="5.10" departSpeed="0.00" departDelay="48.00" arrival="257.00" arrivalLane="end_1" arrivalPos="200.00" arrivalSpeed="10.96" duration="139.00" routeLength="494.90" waitSteps="75" timeLoss="95.01" rerouteNo="0" devices="tripinfo_mixed.70" vType="car" vaporized=""/>
    <tripinfo id="mixed.83" depart="142.00" departLane="beg_1" departPos="2.20" departSpeed="0.00" departDelay="59.00" arrival="258.00" arrivalLane="end_1" arrivalPos="200.00" arrivalSpeed="12.86" duration="116.00" routeLength="497.80" waitSteps="58" timeLoss="82.71" rerouteNo="0" devices="tripinfo_mixed.83" vType="moped" vaporized=""/>
    <tripinfo id="mixed.36" depart="59.00" departLane="beg_0" departPos="2.20" departSpeed="0.00" departDelay="23.00" arrival="259.00" arrivalLane="end_0" arrivalPos="200.00" arrivalSpeed="6.51" duration="200.00" routeLength="497.80" waitSteps="110" timeLoss="128.90" rerouteNo="0" devices="tripinfo_mixed.36" vType="moped" vaporized=""/>
    <tripinfo id="mixed.76" depart="127.00" departLane="beg_1" departPos="2.20" departSpeed="0.00" departDelay="51.00" arrival="259.00" arrivalLane="end_1" arrivalPos="200.00" arrivalSpeed="12.53" duration="132.00" routeLength="497.80" waitSteps="69" timeLoss="101.69" rerouteNo="0" devices="tripinfo_mixed.76" vType="moped" vaporized=""/>
    <tripinfo id="mixed.84" depart="146.00" departLane="beg_0" departPos="5.10" departSpeed="0.00" departDelay="62.00" arrival="260.00" arrivalLane="end_1" arrivalPos="200.00" arrivalSpeed="15.68" duration="114.00" routeLength="494.90" waitSteps="57" timeLoss="83.58" rerouteNo="0" devices="tripinfo_mixed.84" vType="car" vaporized=""/>
    <tripinfo id="mixed.2" depart="2.00" departLane="beg_0" departPos="2.20" departSpeed="0.00" departDelay="0.00" arrival="261.00" arrivalLane="end_0" arrivalPos="200.00" arrivalSpeed="3.99" duration="259.00" routeLength="497.80" waitSteps="135" timeLoss="148.28" rerouteNo="0" devices="tripinfo_mixed.2" vType="moped" vaporized=""/>
    <tripinfo id="mixed.52" depart="85.00" departLane="beg_1" departPos="5.10" departSpeed="0.00" departDelay="33.00" arrival="261.00" arrivalLane="end_0" arrivalPos="200.00" arrivalSpeed="11.51" duration="176.00" routeLength="494.90" waitSteps="104" timeLoss="141.18" rerouteNo="0" devices="tripinfo_mixed.52" vType="car" vaporized=""/>
    <tripinfo id="mixed.92" depart="156.00" departLane="beg_1" departPos="5.10" departSpeed="0.00" departDelay="64.00" arrival="262.00" arrivalLane="end_1" arrivalPos="200.00" arrivalSpeed="13.27" duration="106.00" routeLength="494.90" waitSteps="51" timeLoss="71.25" rerouteNo="0" devices="tripinfo_mixed.92" vType="car" vaporized=""/>
    <tripinfo id="mixed.42" depart="66.00" departLane="beg_1" departPos="2.20" departSpeed="0.00" departDelay="24.00" arrival="263.00" arrivalLane="end_0" arrivalPos="200.00" arrivalSpeed="6.02" duration="197.00" routeLength="497.80" waitSteps="109" timeLoss="136.32" rerouteNo="0" devices="tripinfo_mixed.42" vType="moped" vaporized=""/>
    <tripinfo id="mixed.60" depart="97.00" departLane="beg_1" departPos="5.10" departSpeed="0.00" departDelay="37.00" arrival="263.00" arrivalLane="end_1" arrivalPos="200.00" arrivalSpeed="11.18" duration="166.00" routeLength="494.90" waitSteps="95" timeLoss="130.92" rerouteNo="0" devices="tripinfo_mixed.60" vType="car" vaporized=""/>
    <tripinfo id="mixed.67" depart="109.00" departLane="beg_1" departPos="2.20" departSpeed="0.00" departDelay="42.00" arrival="265.00" arrivalLane="end_0" arrivalPos="200.00" arrivalSpeed="10.77" duration="156.00" routeLength="497.80" waitSteps="82" timeLoss="125.58" rerouteNo="0" devices="tripinfo_mixed.67" vType="moped" vaporized=""/>
    <tripinfo id="mixed.55" depart="90.00" departLane="beg_0" departPos="5.10" departSpeed="0.00" departDelay="35.00" arrival="265.00" arrivalLane="end_0" arrivalPos="200.00" arrivalSpeed="9.83" duration="175.00" routeLength="494.90" waitSteps="99" timeLoss="145.54" rerouteNo="0" devices="tripinfo_mixed.55" vType="car" vaporized=""/>
    <tripinfo id="mixed.95" depart="161.00" departLane="beg_1" departPos="5.10" departSpeed="0.00" departDelay="66.00" arrival="265.00" arrivalLane="end_1" arrivalPos="200.00" arrivalSpeed="13.29" duration="104.00" routeLength="494.90" waitSteps="43" timeLoss="67.77" rerouteNo="0" devices="tripinfo_mixed.95" vType="car" vaporized=""/>
    <tripinfo id="mixed.68" depart="113.00" departLane="beg_1" departPos="2.20" departSpeed="0.00" departDelay="45.00" arrival="266.00" arrivalLane="end_0" arrivalPos="200.00" arrivalSpeed="10.69" duration="153.00" routeLength="497.80" waitSteps="83" timeLoss="122.86" rerouteNo="0" devices="tripinfo_mixed.68" vType="moped" vaporized=""/>
    <tripinfo id="mixed.96" depart="164.00" departLane="beg_0" departPos="5.10" departSpeed="0.00" departDelay="68.00" arrival="266.00" arrivalLane="end_1" arrivalPos="200.00" arrivalSpeed="13.27" duration="102.00" routeLength="494.90" waitSteps="43" timeLoss="73.35" rerouteNo="0" devices="tripinfo_mixed.96" vType="car" vaporized=""/>
    <tripinfo id="mixed.62" depart="100.00" departLane="beg_1" departPos="2.20" departSpeed="0.00" departDelay="38.00" arrival="267.00" arrivalLane="end_0" arrivalPos="200.00" arrivalSpeed="7.62" duration="167.00" routeLength="497.80" waitSteps="91" timeLoss="127.01" rerouteNo="0" devices="tripinfo_mixed.62" vType="moped" vaporized=""/>
    <tripinfo id="mixed.75" depart="125.00" departLane="beg_1" departPos="5.10" departSpeed="0.00" departDelay="50.00" arrival="268.00" arrivalLane="end_1" arrivalPos="200.00" arrivalSpeed="11.66" duration="143.00" routeLength="494.90" waitSteps="73" timeLoss="102.73" rerouteNo="0" devices="tripinfo_mixed.75" vType="car" vaporized=""/>
    <tripinfo id="mixed.98" depart="167.00" departLane="beg_0" departPos="5.10" departSpeed="0.00" departDelay="69.00" arrival="268.00" arrivalLane="end_1" arrivalPos="200.00" arrivalSpeed="14.18" duration="101.00" routeLength="494.90" waitSteps="39" timeLoss="67.27" rerouteNo="0" devices="tripinfo_mixed.98" vType="car" vaporized=""/>
    <tripinfo id="mixed.53" depart="85.00" departLane="beg_0" departPos="2.20" departSpeed="0.00" departDelay="32.00" arrival="269.00" arrivalLane="end_0" arrivalPos="200.00" arrivalSpeed="8.70" duration="184.00" routeLength="497.80" waitSteps="91" timeLoss="132.72" rerouteNo="0" devices="tripinfo_mixed.53" vType="moped" vaporized=""/>
    <tripinfo id="mixed.48" depart="78.00" departLane="beg_1" departPos="2.20" departSpeed="0.00" departDelay="30.00" arrival="269.00" arrivalLane="end_0" arrivalPos="200.00" arrivalSpeed="10.10" duration="191.00" routeLength="497.80" waitSteps="105" timeLoss="152.72" rerouteNo="0" devices="tripinfo_mixed.48" vType="moped" vaporized=""/>
    <tripinfo id="mixed.78" depart="133.00" departLane="beg_0" departPos="5.10" departSpeed="0.00" departDelay="55.00" arrival="270.00" arrivalLane="end_1" arrivalPos="200.00" arrivalSpeed="14.45" duration="137.00" routeLength="494.90" waitSteps="67" timeLoss="102.73" rerouteNo="0" devices="tripinfo_mixed.78" vType="car" vaporized=""/>
    <tripinfo id="mixed.97" depart="164.00" departLane="beg_1" departPos="2.20" departSpeed="0.00" departDelay="67.00" arrival="270.00" arrivalLane="end_1" arrivalPos="200.00" arrivalSpeed="12.90" duration="106.00" routeLength="497.80" waitSteps="43" timeLoss="75.81" rerouteNo="0" devices="tripinfo_mixed.97" vType="moped" vaporized=""/>
    <tripinfo id="mixed.49" depart="78.00" departLane="beg_0" departPos="2.20" departSpeed="0.00" departDelay="29.00" arrival="271.00" arrivalLane="end_0" arrivalPos="200.00" arrivalSpeed="11.48" duration="193.00" routeLength="497.80" waitSteps="102" timeLoss="149.16" rerouteNo="0" devices="tripinfo_mixed.49" vType="moped" vaporized=""/>
    <tripinfo id="mixed.81" depart="140.00" departLane="beg_1" departPos="5.10" departSpeed="0.00" departDelay="59.00" arrival="271.00" arrivalLane="end_1" arrivalPos="200.00" arrivalSpeed="13.90" duration="131.00" routeLength="494.90" waitSteps="66" timeLoss="105.33" rerouteNo="0" devices="tripinfo_mixed.81" vType="car" vaporized=""/>
    <tripinfo id="mixed.29" depart="48.00" departLane="beg_0" departPos="2.20" departSpeed="0.00" departDelay="19.00" arrival="273.00" arrivalLane="end_0" arrivalPos="200.00" arrivalSpeed="4.72" duration="225.00" routeLength="497.80" waitSteps="107" timeLoss="119.35" rerouteNo="0" devices="tripinfo_mixed.29" vType="moped" vaporized=""/>
    <tripinfo id="mixed.77" depart="129.00" departLane="beg_0" departPos="2.20" departSpeed="0.00" departDelay="52.00" arrival="273.00" arrivalLane="end_1" arrivalPos="200.00" arrivalSpeed="12.75" duration="144.00" routeLength="497.80" waitSteps="69" timeLoss="113.91" rerouteNo="0" devices="tripinfo_mixed.77" vType="moped" vaporized=""/>
    <tripinfo id="mixed.50" depart="79.00" departLane="beg_1" departPos="2.20" departSpeed="0.00" departDelay="29.00" arrival="274.00" arrivalLane="end_0" arrivalPos="200.00" arrivalSpeed="7.93" duration="195.00" routeLength="497.80" waitSteps="102" timeLoss="137.18" rerouteNo="0" devices="tripinfo_mixed.50" vType="moped" vaporized=""/>
    <tripinfo id="mixed.69" depart="114.00" departLane="beg_0" departPos="5.10" departSpeed="0.00" departDelay="45.00" arrival="274.00" arrivalLane="end_1" arrivalPos="200.00" arrivalSpeed="9.50" duration="160.00" routeLength="494.90" waitSteps="80" timeLoss="110.06" rerouteNo="0" devices="tripinfo_mixed.69" vType="car" vaporized=""/>
    <tripinfo id="mixed.61" depart="98.00" departLane="beg_0" departPos="2.20" departSpeed="0.00" departDelay="37.00" arrival="276.00" arrivalLane="end_0" arrivalPos="200.00" arrivalSpeed="8.52" duration="178.00" routeLength="497.80" waitSteps="94" timeLoss="147.51" rerouteNo="0" devices="tripinfo_mixed.61" vType="moped" vaporized=""/>
    <tripinfo id="mixed.58" depart="95.00" departLane="beg_0" departPos="5.10" departSpeed="0.00" departDelay="37.00" arrival="276.00" arrivalLane="end_0" arrivalPos="200.00" arrivalSpeed="11.39" duration="181.00" routeLength="494.90" waitSteps="99" timeLoss="149.91" rerouteNo="0" devices="tripinfo_mixed.58" vType="car" vaporized=""/>
    <tripinfo id="mixed.90" depart="154.00" departLane="beg_1" departPos="2.20" departSpeed="0.00" departDelay="64.00" arrival="276.00" arrivalLane="end_1" arrivalPos="200.00" arrivalSpeed="10.50" duration="122.00" routeLength="497.80" waitSteps="48" timeLoss="74.66" rerouteNo="0" devices="tripinfo_mixed.90" vType="moped" vaporized=""/>
    <tripinfo id="mixed.91" depart="154.00" departLane="beg_0" departPos="2.20" departSpeed="0.00" departDelay="63.00" arrival="277.00" arrivalLane="end_1" arrivalPos="200.00" arrivalSpeed="11.72" duration="123.00" routeLength="497.80" waitSteps="50" timeLoss="91.08" rerouteNo="0" devices="tripinfo_mixed.91" vType="moped" vaporized=""/>
    <tripinfo id="mixed.88" depart="153.00" departLane="beg_1" departPos="5.10" departSpeed="0.00" departDelay="65.00" arrival="277.00" arrivalLane="end_1" arrivalPos="200.00" arrivalSpeed="9.48" duration="124.00" routeLength="494.90" waitSteps="52" timeLoss="87.68" rerouteNo="0" devices="tripinfo_mixed.88" vType="car" vaporized=""/>
    <tripinfo id="mixed.57" depart="95.00" departLane="beg_1" departPos="2.20" departSpeed="0.00" departDelay="38.00" arrival="278.00" arrivalLane="end_0" arrivalPos="200.00" arrivalSpeed="9.29" duration="183.00" routeLength="497.80" waitSteps="89" timeLoss="128.93" rerouteNo="0" devices="tripinfo_mixed.57" vType="moped" vaporized=""/>
    <tripinfo id="mixed.63" depart="103.00" departLane="beg_0" departPos="2.20" departSpeed="0.00" departDelay="40.00" arrival="278.00" arrivalLane="end_0" arrivalPos="200.00" arrivalSpeed="8.64" duration="175.00" routeLength="497.80" waitSteps="84" timeLoss="135.57" rerouteNo="0" devices="tripinfo_mixed.63" vType="moped" vaporized=""/>
    <tripinfo id="mixed.87" depart="149.00" departLane="beg_1" departPos="2.20" departSpeed="0.00" departDelay="62.00" arrival="279.00" arrivalLane="end_0" arrivalPos="200.00" arrivalSpeed="9.16" duration="130.00" routeLength="497.80" waitSteps="54" timeLoss="99.98" rerouteNo="0" devices="tripinfo_mixed.87" vType="moped" vaporized=""/>
    <tripinfo id="mixed.94" depart="158.00" departLane="beg_1" departPos="2.20" departSpeed="0.00" departDelay="64.00" arrival="279.00" arrivalLane="end_1" arrivalPos="200.00" arrivalSpeed="12.11" duration="121.00" routeLength="497.80" waitSteps="48" timeLoss="88.65" rerouteNo="0" devices="tripinfo_mixed.94" vType="moped" vaporized=""/>