<?xml version="1.0" encoding="UTF-8"?>

<!-- generated on Thu Dec 17 11:09:56 2015 by SUMO Version dev-SVN-r19615
<?xml version="1.0" encoding="UTF-8"?>

<configuration xmlns:xsi="http://www.w3.org/2001/XMLSchema-instance" xsi:noNamespaceSchemaLocation="http://sumo.dlr.de/xsd/sumoConfiguration.xsd">

    <input>
        <net-file value="net.net.xml"/>
        <route-files value="input_routes.rou.xml"/>
    </input>

    <output>
        <tripinfo-output value="tripinfos.xml"/>
    </output>

    <processing>
        <lateral-resolution value="0.64"/>
    </processing>

    <report>
        <xml-validation value="never"/>
        <no-step-log value="true"/>
    </report>

</configuration>
-->

<tripinfos xmlns:xsi="http://www.w3.org/2001/XMLSchema-instance" xsi:noNamespaceSchemaLocation="http://sumo.dlr.de/xsd/tripinfo_file.xsd">
    <tripinfo id="mixed.8" depart="13.00" departLane="beg_1" departPos="5.10" departSpeed="0.00" departDelay="5.00" arrival="215.00" arrivalLane="end_0" arrivalPos="200.00" arrivalSpeed="16.81" duration="202.00" routeLength="494.90" waitSteps="160" timeLoss="172.96" rerouteNo="0" devices="tripinfo_mixed.8" vType="car" vaporized=""/>
    <tripinfo id="mixed.5" depart="7.00" departLane="beg_1" departPos="5.10" departSpeed="0.00" departDelay="2.00" arrival="217.00" arrivalLane="end_0" arrivalPos="200.00" arrivalSpeed="14.06" duration="210.00" routeLength="494.90" waitSteps="164" timeLoss="174.72" rerouteNo="0" devices="tripinfo_mixed.5" vType="car" vaporized=""/>
    <tripinfo id="mixed.11" depart="20.00" departLane="beg_1" departPos="5.10" departSpeed="0.00" departDelay="9.00" arrival="218.00" arrivalLane="end_0" arrivalPos="200.00" arrivalSpeed="14.90" duration="198.00" routeLength="494.90" waitSteps="153" timeLoss="164.62" rerouteNo="0" devices="tripinfo_mixed.11" vType="car" vaporized=""/>
    <tripinfo id="mixed.6" depart="8.00" departLane="beg_0" departPos="2.20" departSpeed="0.00" departDelay="2.00" arrival="221.00" arrivalLane="end_1" arrivalPos="200.00" arrivalSpeed="16.66" duration="213.00" routeLength="497.80" waitSteps="159" timeLoss="182.76" rerouteNo="0" devices="tripinfo_mixed.6" vType="moped" vaporized=""/>
    <tripinfo id="mixed.9" depart="16.00" departLane="beg_1" departPos="5.10" departSpeed="0.00" departDelay="7.00" arrival="223.00" arrivalLane="end_0" arrivalPos="200.00" arrivalSpeed="10.82" duration="207.00" routeLength="494.90" waitSteps="150" timeLoss="162.01" rerouteNo="0" devices="tripinfo_mixed.9" vType="car" vaporized=""/>
    <tripinfo id="mixed.20" depart="33.00" departLane="beg_0" departPos="5.10" departSpeed="0.00" departDelay="13.00" arrival="223.00" arrivalLane="end_1" arrivalPos="200.00" arrivalSpeed="16.59" duration="190.00" routeLength="494.90" waitSteps="132" timeLoss="160.83" rerouteNo="0" devices="tripinfo_mixed.20" vType="car" vaporized=""/>
    <tripinfo id="mixed.15" depart="25.00" departLane="beg_0" departPos="2.20" departSpeed="0.00" departDelay="10.00" arrival="223.00" arrivalLane="end_1" arrivalPos="200.00" arrivalSpeed="15.05" duration="198.00" routeLength="497.80" waitSteps="137" timeLoss="165.47" rerouteNo="0" devices="tripinfo_mixed.15" vType="moped" vaporized=""/>
    <tripinfo id="mixed.0" depart="0.00" departLane="beg_0" departPos="2.20" departSpeed="0.00" departDelay="0.00" arrival="224.00" arrivalLane="end_0" arrivalPos="200.00" arrivalSpeed="10.11" duration="224.00" routeLength="497.80" waitSteps="164" timeLoss="176.27" rerouteNo="0" devices="tripinfo_mixed.0" vType="moped" vaporized=""/>
    <tripinfo id="mixed.17" depart="27.00" departLane="beg_1" departPos="5.10" departSpeed="0.00" departDelay="10.00" arrival="225.00" arrivalLane="end_0" arrivalPos="200.00" arrivalSpeed="13.03" duration="198.00" routeLength="494.90" waitSteps="146" timeLoss="162.18" rerouteNo="0" devices="tripinfo_mixed.17" vType="car" vaporized=""/>
    <tripinfo id="mixed.3" depart="4.00" departLane="beg_1" departPos="2.20" departSpeed="0.00" departDelay="1.00" arrival="226.00" arrivalLane="end_0" arrivalPos="200.00" arrivalSpeed="11.08" duration="222.00" routeLength="497.80" waitSteps="161" timeLoss="184.92" rerouteNo="0" devices="tripinfo_mixed.3" vType="moped" vaporized=""/>
    <tripinfo id="mixed.22" depart="35.00" departLane="beg_0" departPos="2.20" departSpeed="0.00" departDelay="13.00" arrival="226.00" arrivalLane="end_1" arrivalPos="200.00" arrivalSpeed="16.23" duration="191.00" routeLength="497.80" waitSteps="129" timeLoss="160.31" rerouteNo="0" devices="tripinfo_mixed.22" vType="moped" vaporized=""/>
    <tripinfo id="mixed.19" depart="30.00" departLane="beg_0" departPos="5.10" departSpeed="0.00" departDelay="11.00" arrival="226.00" arrivalLane="end_1" arrivalPos="200.00" arrivalSpeed="14.51" duration="196.00" routeLength="494.90" waitSteps="139" timeLoss="162.33" rerouteNo="0" devices="tripinfo_mixed.19" vType="car" vaporized=""/>
    <tripinfo id="mixed.23" depart="35.00" departLane="beg_0" departPos="2.20" departSpeed="0.00" departDelay="12.00" arrival="227.00" arrivalLane="end_1" arrivalPos="200.00" arrivalSpeed="16.38" duration="192.00" routeLength="497.80" waitSteps="126" timeLoss="161.65" rerouteNo="0" devices="tripinfo_mixed.23" vType="moped" vaporized=""/>
    <tripinfo id="mixed.14" depart="22.00" departLane="beg_0" departPos="2.20" departSpeed="0.00" departDelay="8.00" arrival="228.00" arrivalLane="end_0" arrivalPos="200.00" arrivalSpeed="14.06" duration="206.00" routeLength="497.80" waitSteps="146" timeLoss="170.70" rerouteNo="0" devices="tripinfo_mixed.14" vType="moped" vaporized=""/>
    <tripinfo id="mixed.26" depart="41.00" departLane="beg_0" departPos="2.20" departSpeed="0.00" departDelay="15.00" arrival="229.00" arrivalLane="end_1" arrivalPos="200.00" arrivalSpeed="14.50" duration="188.00" routeLength="497.80" waitSteps="125" timeLoss="154.32" rerouteNo="0" devices="tripinfo_mixed.26" vType="moped" vaporized=""/>
    <tripinfo id="mixed.7" depart="11.00" departLane="beg_1" departPos="2.20" departSpeed="0.00" departDelay="4.00" arrival="230.00" arrivalLane="end_0" arrivalPos="200.00" arrivalSpeed="9.26" duration="219.00" routeLength="497.80" waitSteps="148" timeLoss="166.37" rerouteNo="0" devices="tripinfo_mixed.7" vType="moped" vaporized=""/>
    <tripinfo id="mixed.21" depart="33.00" departLane="beg_1" departPos="5.10" departSpeed="0.00" departDelay="12.00" arrival="232.00" arrivalLane="end_1" arrivalPos="200.00" arrivalSpeed="10.46" duration="199.00" routeLength="494.90" waitSteps="136" timeLoss="153.10" rerouteNo="0" devices="tripinfo_mixed.21" vType="car" vaporized=""/>
    <tripinfo id="mixed.18" depart="30.00" departLane="beg_1" departPos="5.10" departSpeed="0.00" departDelay="12.00" arrival="233.00" arrivalLane="end_0" arrivalPos="200.00" arrivalSpeed="9.59" duration="203.00" routeLength="494.90" waitSteps="133" timeLoss="154.43" rerouteNo="0" devices="tripinfo_mixed.18" vType="car" vaporized=""/>
    <tripinfo id="mixed.32" depart="51.00" departLane="beg_1" departPos="5.10" departSpeed="0.00" departDelay="19.00" arrival="234.00" arrivalLane="end_1" arrivalPos="200.00" arrivalSpeed="13.22" duration="183.00" routeLength="494.90" waitSteps="124" timeLoss="149.04" rerouteNo="0" devices="tripinfo_mixed.32" vType="car" vaporized=""/>
    <tripinfo id="mixed.25" depart="40.00" departLane="beg_1" departPos="5.10" departSpeed="0.00" departDelay="15.00" arrival="234.00" arrivalLane="end_1" arrivalPos="200.00" arrivalSpeed="12.64" duration="194.00" routeLength="494.90" waitSteps="133" timeLoss="155.80" rerouteNo="0" devices="tripinfo_mixed.25" vType="car" vaporized=""/>
    <tripinfo id="mixed.12" depart="22.00" departLane="beg_1" departPos="2.20" departSpeed="0.00" departDelay="10.00" arrival="235.00" arrivalLane="end_0" arrivalPos="200.00" arrivalSpeed="9.97" duration="213.00" routeLength="497.80" waitSteps="147" timeLoss="163.99" rerouteNo="0" devices="tripinfo_mixed.12" vType="moped" vaporized=""/>
    <tripinfo id="mixed.4" depart="4.00" departLane="beg_0" departPos="2.20" departSpeed="0.00" departDelay="0.00" arrival="235.00" arrivalLane="end_0" arrivalPos="200.00" arrivalSpeed="7.55" duration="231.00" routeLength="497.80" waitSteps="151" timeLoss="164.53" rerouteNo="0" devices="tripinfo_mixed.4" vType="moped" vaporized=""/>
    <tripinfo id="mixed.39" depart="60.00" departLane="beg_0" departPos="2.20" departSpeed="0.00" departDelay="21.00" arrival="235.00" arrivalLane="end_1" arrivalPos="200.00" arrivalSpeed="12.47" duration="175.00" routeLength="497.80" waitSteps="116" timeLoss="144.63" rerouteNo="0" devices="tripinfo_mixed.39" vType="moped" vaporized=""/>
    <tripinfo id="mixed.41" depart="63.00" departLane="beg_1" departPos="2.20" departSpeed="0.00" departDelay="22.00" arrival="236.00" arrivalLane="end_0" arrivalPos="200.00" arrivalSpeed="11.34" duration="173.00" routeLength="497.80" waitSteps="117" timeLoss="142.85" rerouteNo="0" devices="tripinfo_mixed.41" vType="moped" vaporized=""/>
    <tripinfo id="mixed.35" depart="55.00" departLane="beg_1" departPos="2.20" departSpeed="0.00" departDelay="20.00" arrival="236.00" arrivalLane="end_0" arrivalPos="200.00" arrivalSpeed="11.54" duration="181.00" routeLength="497.80" waitSteps="123" timeLoss="147.67" rerouteNo="0" devices="tripinfo_mixed.35" vType="moped" vaporized=""/>
    <tripinfo id="mixed.37" depart="57.00" departLane="beg_1" departPos="2.20" departSpeed="0.00" departDelay="20.00" arrival="236.00" arrivalLane="end_1" arrivalPos="200.00" arrivalSpeed="11.80" duration="179.00" routeLength="497.80" waitSteps="119" timeLoss="148.75" rerouteNo="0" devices="tripinfo_mixed.37" vType="moped" vaporized=""/>
    <tripinfo id="mixed.10" depart="16.00" departLane="beg_0" departPos="2.20" departSpeed="0.00" departDelay="6.00" arrival="237.00" arrivalLane="end_0" arrivalPos="200.00" arrivalSpeed="8.94" duration="221.00" routeLength="497.80" waitSteps="149" timeLoss="169.41" rerouteNo="0" devices="tripinfo_mixed.10" vType="moped" vaporized=""/>
    <tripinfo id="mixed.43" depart="63.00" departLane="beg_0" departPos="2.20" departSpeed="0.00" departDelay="20.00" arrival="237.00" arrivalLane="end_1" arrivalPos="200.00" arrivalSpeed="11.34" duration="174.00" routeLength="497.80" waitSteps="102" timeLoss="130.89" rerouteNo="0" devices="tripinfo_mixed.43" vType="moped" vaporized=""/>
    <tripinfo id="mixed.30" depart="48.00" departLane="beg_1" departPos="2.20" departSpeed="0.00" departDelay="18.00" arrival="238.00" arrivalLane="end_0" arrivalPos="200.00" arrivalSpeed="12.62" duration="190.00" routeLength="497.80" waitSteps="124" timeLoss="157.23" rerouteNo="0" devices="tripinfo_mixed.30" vType="moped" vaporized=""/>
    <tripinfo id="mixed.40" depart="61.00" departLane="beg_1" departPos="2.20" departSpeed="0.00" departDelay="21.00" arrival="238.00" arrivalLane="end_0" arrivalPos="200.00" arrivalSpeed="12.09" duration="177.00" routeLength="497.80" waitSteps="110" timeLoss="140.79" rerouteNo="0" devices="tripinfo_mixed.40" vType="moped" vaporized=""/>
    <tripinfo id="mixed.13" depart="22.00" departLane="beg_0" departPos="2.20" departSpeed="0.00" departDelay="9.00" arrival="238.00" arrivalLane="end_0" arrivalPos="200.00" arrivalSpeed="9.00" duration="216.00" routeLength="497.80" waitSteps="147" timeLoss="185.85" rerouteNo="0" devices="tripinfo_mixed.13" vType="moped" vaporized=""/>
    <tripinfo id="mixed.31" depart="49.00" departLane="beg_0" departPos="2.20" departSpeed="0.00" departDelay="18.00" arrival="239.00" arrivalLane="end_0" arrivalPos="200.00" arrivalSpeed="12.17" duration="190.00" routeLength="497.80" waitSteps="123" timeLoss="159.62" rerouteNo="0" devices="tripinfo_mixed.31" vType="moped" vaporized=""/>
    <tripinfo id="mixed.46" depart="71.00" departLane="beg_1" departPos="2.20" departSpeed="0.00" departDelay="25.00" arrival="239.00" arrivalLane="end_1" arrivalPos="200.00" arrivalSpeed="13.61" duration="168.00" routeLength="497.80" waitSteps="100" timeLoss="137.45" rerouteNo="0" devices="tripinfo_mixed.46" vType="moped" vaporized=""/>
    <tripinfo id="mixed.38" depart="59.00" departLane="beg_1" departPos="2.20" departSpeed="0.00" departDelay="21.00" arrival="240.00" arrivalLane="end_0" arrivalPos="200.00" arrivalSpeed="12.63" duration="181.00" routeLength="497.80" waitSteps="109" timeLoss="150.90" rerouteNo="0" devices="tripinfo_mixed.38" vType="moped" vaporized=""/>
    <tripinfo id="mixed.44" depart="68.00" departLane="beg_1" departPos="5.10" departSpeed="0.00" departDelay="24.00" arrival="240.00" arrivalLane="end_1" arrivalPos="200.00" arrivalSpeed="14.25" duration="172.00" routeLength="494.90" waitSteps="115" timeLoss="136.95" rerouteNo="0" devices="tripinfo_mixed.44" vType="car" vaporized=""/>
    <tripinfo id="mixed.48" depart="74.00" departLane="beg_1" departPos="2.20" departSpeed="0.00" departDelay="26.00" arrival="240.00" arrivalLane="end_1" arrivalPos="200.00" arrivalSpeed="12.70" duration="166.00" routeLength="497.80" waitSteps="98" timeLoss="127.84" rerouteNo="0" devices="tripinfo_mixed.48" vType="moped" vaporized=""/>
    <tripinfo id="mixed.16" depart="25.00" departLane="beg_1" departPos="2.20" departSpeed="0.00" departDelay="9.00" arrival="241.00" arrivalLane="end_0" arrivalPos="200.00" arrivalSpeed="7.33" duration="216.00" routeLength="497.80" waitSteps="129" timeLoss="151.69" rerouteNo="0" devices="tripinfo_mixed.16" vType="moped" vaporized=""/>
    <tripinfo id="mixed.52" depart="83.00" departLane="beg_1" departPos="5.10" departSpeed="0.00" departDelay="31.00" arrival="242.00" arrivalLane="end_1" arrivalPos="200.00" arrivalSpeed="14.50" duration="159.00" routeLength="494.90" waitSteps="100" timeLoss="124.24" rerouteNo="0" devices="tripinfo_mixed.52" vType="car" vaporized=""/>
    <tripinfo id="mixed.28" depart="44.00" departLane="beg_1" departPos="2.20" departSpeed="0.00" departDelay="16.00" arrival="243.00" arrivalLane="end_0" arrivalPos="200.00" arrivalSpeed="9.15" duration="199.00" routeLength="497.80" waitSteps="124" timeLoss="168.74" rerouteNo="0" devices="tripinfo_mixed.28" vType="moped" vaporized=""/>
    <tripinfo id="mixed.51" depart="80.00" departLane="beg_0" departPos="2.20" departSpeed="0.00" departDelay="29.00" arrival="243.00" arrivalLane="end_1" arrivalPos="200.00" arrivalSpeed="10.67" duration="163.00" routeLength="497.80" waitSteps="94" timeLoss="116.88" rerouteNo="0" devices="tripinfo_mixed.51" vType="moped" vaporized=""/>
    <tripinfo id="mixed.54" depart="87.00" departLane="beg_1" departPos="5.10" departSpeed="0.00" departDelay="33.00" arrival="244.00" arrivalLane="end_0" arrivalPos="200.00" arrivalSpeed="15.43" duration="157.00" routeLength="494.90" waitSteps="98" timeLoss="124.04" rerouteNo="0" devices="tripinfo_mixed.54" vType="car" vaporized=""/>
    <tripinfo id="mixed.58" depart="94.00" departLane="beg_0" departPos="5.10" departSpeed="0.00" departDelay="36.00" arrival="244.00" arrivalLane="end_1" arrivalPos="200.00" arrivalSpeed="13.33" duration="150.00" routeLength="494.90" waitSteps="94" timeLoss="119.51" rerouteNo="0" devices="tripinfo_mixed.58" vType="car" vaporized=""/>
    <tripinfo id="mixed.72" depart="121.00" departLane="beg_0" departPos="2.20" departSpeed="0.00" departDelay="49.00" arrival="246.00" arrivalLane="end_1" arrivalPos="200.00" arrivalSpeed="13.53" duration="125.00" routeLength="497.80" waitSteps="69" timeLoss="94.81" rerouteNo="0" devices="tripinfo_mixed.72" vType="moped" vaporized=""/>
    <tripinfo id="mixed.62" depart="100.00" departLane="beg_0" departPos="2.20" departSpeed="0.00" departDelay="38.00" arrival="251.00" arrivalLane="end_0" arrivalPos="200.00" arrivalSpeed="12.15" duration="151.00" routeLength="497.80" waitSteps="84" timeLoss="110.49" rerouteNo="0" devices="tripinfo_mixed.62" vType="moped" vaporized=""/>
    <tripinfo id="mixed.65" depart="105.00" departLane="beg_1" departPos="2.20" departSpeed="0.00" departDelay="40.00" arrival="251.00" arrivalLane="end_1" arrivalPos="200.00" arrivalSpeed="10.67" duration="146.00" routeLength="497.80" waitSteps="75" timeLoss="99.15" rerouteNo="0" devices="tripinfo_mixed.65" vType="moped" vaporized=""/>
    <tripinfo id="mixed.36" depart="56.00" departLane="beg_0" departPos="2.20" departSpeed="0.00" departDelay="20.00" arrival="253.00" arrivalLane="end_0" arrivalPos="200.00" arrivalSpeed="6.70" duration="197.00" routeLength="497.80" waitSteps="105" timeLoss="126.23" rerouteNo="0" devices="tripinfo_mixed.36" vType="moped" vaporized=""/>
    <tripinfo id="mixed.73" depart="121.00" departLane="beg_0" departPos="2.20" departSpeed="0.00" departDelay="48.00" arrival="253.00" arrivalLane="end_1" arrivalPos="200.00" arrivalSpeed="11.77" duration="132.00" routeLength="497.80" waitSteps="65" timeLoss="101.47" rerouteNo="0" devices="tripinfo_mixed.73" vType="moped" vaporized=""/>
    <tripinfo id="mixed.27" depart="42.00" departLane="beg_1" departPos="2.20" departSpeed="0.00" departDelay="15.00" arrival="254.00" arrivalLane="end_0" arrivalPos="200.00" arrivalSpeed="9.70" duration="212.00" routeLength="497.80" waitSteps="135" timeLoss="164.54" rerouteNo="0" devices="tripinfo_mixed.27" vType="moped" vaporized=""/>
    <tripinfo id="mixed.34" depart="54.00" departLane="beg_0" departPos="5.10" departSpeed="0.00" departDelay="20.00" arrival="254.00" arrivalLane="end_1" arrivalPos="200.00" arrivalSpeed="10.21" duration="200.00" routeLength="494.90" waitSteps="118" timeLoss="154.66" rerouteNo="0" devices="tripinfo_mixed.34" vType="car" vaporized=""/>
    <tripinfo id="mixed.74" depart="124.00" departLane="beg_0" departPos="2.20" departSpeed="0.00" departDelay="50.00" arrival="254.00" arrivalLane="end_1" arrivalPos="200.00" arrivalSpeed="11.96" duration="130.00" routeLength="497.80" waitSteps="66" timeLoss="88.46" rerouteNo="0" devices="tripinfo_mixed.74" vType="moped" vaporized=""/>
    <tripinfo id="mixed.83" depart="139.00" departLane="beg_1" departPos="2.20" departSpeed="0.00" departDelay="56.00" arrival="256.00" arrivalLane="end_1" arrivalPos="200.00" arrivalSpeed="13.02" duration="117.00" routeLength="497.80" waitSteps="58" timeLoss="83.04" rerouteNo="0" devices="tripinfo_mixed.83" vType="moped" vaporized=""/>
    <tripinfo id="mixed.55" depart="88.00" departLane="beg_0" departPos="5.10" departSpeed="0.00" departDelay="33.00" arrival="256.00" arrivalLane="end_1" arrivalPos="200.00" arrivalSpeed="13.94" duration="168.00" routeLength="494.90" waitSteps="99" timeLoss="138.25" rerouteNo="0" devices="tripinfo_mixed.55" vType="car" vaporized=""/>
    <tripinfo id="mixed.24" depart="39.00" departLane="beg_0" departPos="2.20" departSpeed="0.00" departDelay="15.00" arrival="257.00" arrivalLane="end_0" arrivalPos="200.00" arrivalSpeed="13.36" duration="218.00" routeLength="497.80" waitSteps="138" timeLoss="180.54" rerouteNo="0" devices="tripinfo_mixed.24" vType="moped" vaporized=""/>
    <tripinfo id="mixed.75" depart="124.00" departLane="beg_1" departPos="5.10" departSpeed="0.00" departDelay="49.00" arrival="257.00" arrivalLane="end_1" arrivalPos="200.00" arrivalSpeed="11.67" duration="133.00" routeLength="494.90" waitSteps="71" timeLoss="93.27" rerouteNo="0" devices="tripinfo_mixed.75" vType="car" vaporized=""/>
    <tripinfo id="mixed.1" depart="1.00" departLane="beg_1" departPos="2.20" departSpeed="0.00" departDelay="0.00" arrival="258.00" arrivalLane="end_0" arrivalPos="200.00" arrivalSpeed="4.56" duration="257.00" routeLength="497.80" waitSteps="144" timeLoss="156.10" rerouteNo="0" devices="tripinfo_mixed.1" vType="moped" vaporized=""/>
    <tripinfo id="mixed.45" depart="71.00" departLane="beg_0" departPos="5.10" departSpeed="0.00" departDelay="26.00" arrival="259.00" arrivalLane="end_0" arrivalPos="200.00" arrivalSpeed="13.73" duration="188.00" routeLength="494.90" waitSteps="108" timeLoss="151.34" rerouteNo="0" devices="tripinfo_mixed.45" vType="car" vaporized=""/>
    <tripinfo id="mixed.79" depart="131.00" departLane="beg_1" departPos="5.10" departSpeed="0.00" departDelay="52.00" arrival="259.00" arrivalLane="end_1" arrivalPos="200.00" arrivalSpeed="12.75" duration="128.00" routeLength="494.90" waitSteps="69" timeLoss="90.24" rerouteNo="0" devices="tripinfo_mixed.79" vType="car" vaporized=""/>
    <tripinfo id="mixed.60" depart="98.00" departLane="beg_0" departPos="5.10" departSpeed="0.00" departDelay="38.00" arrival="261.00" arrivalLane="end_0" arrivalPos="200.00" arrivalSpeed="13.85" duration="163.00" routeLength="494.90" waitSteps="92" timeLoss="127.61" rerouteNo="0" devices="tripinfo_mixed.60" vType="car" vaporized=""/>
    <tripinfo id="mixed.94" depart="153.00" departLane="beg_1" departPos="2.20" departSpeed="0.00" departDelay="59.00" arrival="261.00" arrivalLane="end_1" arrivalPos="200.00" arrivalSpeed="14.47" duration="108.00" routeLength="497.80" waitSteps="49" timeLoss="75.42" rerouteNo="0" devices="tripinfo_mixed.94" vType="moped" vaporized=""/>
    <tripinfo id="mixed.95" depart="156.00" departLane="beg_1" departPos="5.10" departSpeed="0.00" departDelay="61.00" arrival="262.00" arrivalLane="end_1" arrivalPos="200.00" arrivalSpeed="13.59" duration="106.00" routeLength="494.90" waitSteps="50" timeLoss="70.53" rerouteNo="0" devices="tripinfo_mixed.95" vType="car" vaporized=""/>
    <tripinfo id="mixed.61" depart="98.00" departLane="beg_1" departPos="2.20" departSpeed="0.00" departDelay="37.00" arrival="264.00" arrivalLane="end_0" arrivalPos="200.00" arrivalSpeed="13.92" duration="166.00" routeLength="497.80" waitSteps="90" timeLoss="135.56" rerouteNo="0" devices="tripinfo_mixed.61" vType="moped" vaporized=""/>
    <tripinfo id="mixed.49" depart="77.00" departLane="beg_1" departPos="2.20" departSpeed="0.00" departDelay="28.00" arrival="264.00" arrivalLane="end_0" arrivalPos="200.00" arrivalSpeed="11.56" duration="187.00" routeLength="497.80" waitSteps="102" timeLoss="143.76" rerouteNo="0" devices="tripinfo_mixed.49" vType="moped" vaporized=""/>
    <tripinfo id="mixed.98" depart="161.00" departLane="beg_1" departPos="5.10" departSpeed="0.00" departDelay="63.00" arrival="264.00" arrivalLane="end_1" arrivalPos="200.00" arrivalSpeed="14.73" duration="103.00" routeLength="494.90" waitSteps="48" timeLoss="69.08" rerouteNo="0" devices="tripinfo_mixed.98" vType="car" vaporized=""/>
    <tripinfo id="mixed.2" depart="2.00" departLane="beg_0" departPos="2.20" departSpeed="0.00" departDelay="0.00" arrival="266.00" arrivalLane="end_0" arrivalPos="200.00" arrivalSpeed="3.99" duration="264.00" routeLength="497.80" waitSteps="138" timeLoss="152.69" rerouteNo="0" devices="tripinfo_mixed.2" vType="moped" vaporized=""/>
    <tripinfo id="mixed.64" depart="104.00" departLane="beg_0" departPos="5.10" departSpeed="0.00" departDelay="40.00" arrival="266.00" arrivalLane="end_0" arrivalPos="200.00" arrivalSpeed="13.52" duration="162.00" routeLength="494.90" waitSteps="89" timeLoss="126.28" rerouteNo="0" devices="tripinfo_mixed.64" vType="car" vaporized=""/>
    <tripinfo id="mixed.84" depart="142.00" departLane="beg_1" departPos="5.10" departSpeed="0.00" departDelay="58.00" arrival="266.00" arrivalLane="end_1" arrivalPos="200.00" arrivalSpeed="16.09" duration="124.00" routeLength="494.90" waitSteps="61" timeLoss="93.30" rerouteNo="0" devices="tripinfo_mixed.84" vType="car" vaporized=""/>
    <tripinfo id="mixed.47" depart="73.00" departLane="beg_0" departPos="2.20" departSpeed="0.00" departDelay="26.00" arrival="267.00" arrivalLane="end_1" arrivalPos="200.00" arrivalSpeed="7.25" duration="194.00" routeLength="497.80" waitSteps="105" timeLoss="157.26" rerouteNo="0" devices="tripinfo_mixed.47" vType="moped" vaporized=""/>
    <tripinfo id="mixed.78" depart="130.00" departLane="beg_0" departPos="5.10" departSpeed="0.00" departDelay="52.00" arrival="268.00" arrivalLane="end_1" arrivalPos="200.00" arrivalSpeed="14.50" duration="138.00" routeLength="494.90" waitSteps="70" timeLoss="104.07" rerouteNo="0" devices="tripinfo_mixed.78" vType="car" vaporized=""/>
    <tripinfo id="mixed.71" depart="120.00" departLane="beg_1" departPos="5.10" departSpeed="0.00" departDelay="49.00" arrival="269.00" arrivalLane="end_0" arrivalPos="200.00" arrivalSpeed="11.99" duration="149.00" routeLength="494.90" waitSteps="78" timeLoss="120.54" rerouteNo="0" devices="tripinfo_mixed.71" vType="car" vaporized=""/>
    <tripinfo id="mixed.56" depart="91.00" departLane="beg_1" departPos="5.10" departSpeed="0.00" departDelay="35.00" arrival="270.00" arrivalLane="end_0" arrivalPos="200.00" arrivalSpeed="13.70" duration="179.00" routeLength="494.90" waitSteps="98" timeLoss="145.30" rerouteNo="0" devices="tripinfo_mixed.56" vType="car" vaporized=""/>
    <tripinfo id="mixed.92" depart="150.00" departLane="beg_1" departPos="5.10" departSpeed="0.00" departDelay="58.00" arrival="270.00" arrivalLane="end_1" arrivalPos="200.00" arrivalSpeed="14.43" duration="120.00" routeLength="494.90" waitSteps="56" timeLoss="85.69" rerouteNo="0" devices="tripinfo_mixed.92" vType="car" vaporized=""/>
    <tripinfo id="mixed.29" depart="46.00" departLane="beg_0" departPos="2.20" departSpeed="0.00" departDelay="17.00" arrival="274.00" arrivalLane="end_0" arrivalPos="200.00" arrivalSpeed="4.39" duration="228.00" routeLength="497.80" waitSteps="107" timeLoss="121.70" rerouteNo="0" devices="tripinfo_mixed.29" vType="moped" vaporized=""/>
    <tripinfo id="mixed.53" depart="83.00" departLane="beg_0" departPos="2.20" departSpeed="0.00" departDelay="30.00" arrival="274.00" arrivalLane="end_0" arrivalPos="200.00" arrivalSpeed="9.61" duration="191.00" routeLength="497.80" waitSteps="92" timeLoss="139.84" rerouteNo="0" devices="tripinfo_mixed.53" vType="moped" vaporized=""/>
    <tripinfo id="mixed.42" depart="63.00" departLane="beg_0" departPos="2.20" departSpeed="0.00" departDelay="21.00" arrival="274.00" arrivalLane="end_1" arrivalPos="200.00" arrivalSpeed="7.84" duration="211.00" routeLength="497.80" waitSteps="105" timeLoss="149.80" rerouteNo="0" devices="tripinfo_mixed.42" vType="moped" vaporized=""/>
    <tripinfo id="mixed.70" depart="118.00" departLane="beg_0" departPos="5.10" departSpeed="0.00" departDelay="48.00" arrival="274.00" arrivalLane="end_1" arrivalPos="200.00" arrivalSpeed="10.58" duration="156.00" routeLength="494.90" waitSteps="77" timeLoss="111.42" rerouteNo="0" devices="tripinfo_mixed.70" vType="car" vaporized=""/>
    <tripinfo id="mixed.57" depart="92.00" departLane="beg_1" departPos="2.20" departSpeed="0.00" departDelay="35.00" arrival="276.00" arrivalLane="end_0" arrivalPos="200.00" arrivalSpeed="9.29" duration="184.00" routeLength="497.80" waitSteps="90" timeLoss="129.73" rerouteNo="0" devices="tripinfo_mixed.57" vType="moped" vaporized=""/>
    <tripinfo id="mixed.50" depart="77.00" departLane="beg_0" departPos="2.20" departSpeed="0.00" departDelay="27.00" arrival="276.00" arrivalLane="end_0" arrivalPos="200.00" arrivalSpeed="6.42" duration="199.00" routeLength="497.80" waitSteps="95" timeLoss="141.09" rerouteNo="0" devices="tripinfo_mixed.50" vType="moped" vaporized=""/>
    <tripinfo id="mixed.88" depart="146.00" departLane="beg_0" departPos="5.10" departSpeed="0.00" departDelay="58.00" arrival="276.00" arrivalLane="end_1" arrivalPos="200.00" arrivalSpeed="13.49" duration="130.00" routeLength="494.90" waitSteps="57" timeLoss="92.68" rerouteNo="0" devices="tripinfo_mixed.88" vType="car" vaporized=""/>
    <tripinfo id="mixed.68" depart="110.00" departLane="beg_0" departPos="2.20" departSpeed="0.00" departDelay="42.00" arrival="277.00" arrivalLane="end_0" arrivalPos="200.00" arrivalSpeed="9.80" duration="167.00" routeLength="497.80" waitSteps="81" timeLoss="136.77" rerouteNo="0" devices="tripinfo_mixed.68" vType="moped" vaporized=""/>
    <tripinfo id="mixed.63" depart="100.00" departLane="beg_1" departPos="2.20" departSpeed="0.00" departDelay="37.00" arrival="278.00" arrivalLane="end_0" arrivalPos="200.00" arrivalSpeed="6.78" duration="178.00" routeLength="497.80" waitSteps="84" timeLoss="138.35" rerouteNo="0" devices="tripinfo_mixed.63" vType="moped" vaporized=""/>
    <tripinfo id="mixed.87" depart="142.00" departLane="beg_1" departPos="2.20" departSpeed="0.00" departDelay="55.00" arrival="279.00" arrivalLane="end_0" arrivalPos="200.00" arrivalSpeed="11.06" duration="137.00" routeLength="497.80" waitSteps="59" timeLoss="106.40" rerouteNo="0" devices="tripinfo_mixed.87" vType="moped" vaporized=""/>
    <tripinfo id="mixed.59" depart="95.00" departLane="beg_1" departPos="2.20" departSpeed="0.00" departDelay="36.00" arrival="279.00" arrivalLane="end_0" arrivalPos="200.00" arrivalSpeed="6.76" duration="184.00" routeLength="497.80" waitSteps="82" timeLoss="122.94" rerouteNo="0" devices="tripinfo_mixed.59" vType="moped" vaporized=""/>
    <tripinfo id="mixed.69" depart="114.00" departLane="beg_0" departPos="5.10" departSpeed="0.00" departDelay="45.00" arrival="279.00" arrivalLane="end_1" arrivalPos="200.00" arrivalSpeed="9.85" duration="165.00" routeLength="494.90" waitSteps="80" timeLoss="115.20" rerouteNo="0" devices="tripinfo_mixed.69" vType="car" vaporized=""/>
    <tripinfo id="mixed.85" depart="142.00" departLane="beg_0" departPos="2.20" departSpeed="0.00" departDelay="57.00" arrival="280.00" arrivalLane="end_0" arrivalPos="200.00" arrivalSpeed="11.22" duration="138.00" routeLength="497.80" waitSteps="59" timeLoss="96.85" rerouteNo="0" devices="tripinfo_mixed.85" vType="moped" vaporized=""/>
    <tripinfo id="mixed.76" depart="124.00" departLane="beg_0" departPos="2.20" departSpeed="0.00" departDelay="48.00" arrival="281.00" arrivalLane="end_0" arrivalPos="200.00" arrivalSpeed="7.47" duration="157.00" routeLength="497.80" waitSteps="66" timeLoss="126.78" rerouteNo="0" devices="tripinfo_mixed.76" vType="moped" vaporized=""/>
    <tripinfo id="mixed.89" depart="146.00" departLane="beg_1" departPos="2.20" departSpeed="0.00" departDelay="57.00" arrival="281.00" arrivalLane="end_0" arrivalPos="200.00" arrivalSpeed="12.03" duration="135.00" routeLength="497.80" waitSteps="55" timeLoss="95.29" rerouteNo="0" devices="tripinfo_mixed.89" vType="moped" vaporized=""/>