<?xml version="1.0" encoding="UTF-8"?>

<!-- generated on Thu Mar  3 16:31:32 2016 by SUMO Version dev-SVN-r20128
<?xml version="1.0" encoding="UTF-8"?>

<configuration xmlns:xsi="http://www.w3.org/2001/XMLSchema-instance" xsi:noNamespaceSchemaLocation="http://sumo.dlr.de/xsd/sumoConfiguration.xsd">

    <input>
        <net-file value="net.net.xml"/>
        <route-files value="input_routes.rou.xml"/>
    </input>

    <output>
        <tripinfo-output value="tripinfos.xml"/>
    </output>

    <processing>
        <lateral-resolution value="0.64"/>
    </processing>

    <report>
        <xml-validation value="never"/>
        <no-step-log value="true"/>
    </report>

</configuration>
-->

<tripinfos xmlns:xsi="http://www.w3.org/2001/XMLSchema-instance" xsi:noNamespaceSchemaLocation="http://sumo.dlr.de/xsd/tripinfo_file.xsd">
    <tripinfo id="mixed.6" depart="7.00" departLane="beg_1" departPos="2.20" departSpeed="0.00" departDelay="1.00" arrival="221.00" arrivalLane="end_0" arrivalPos="200.00" arrivalSpeed="16.59" duration="214.00" routeLength="497.80" waitSteps="162" timeLoss="183.54" rerouteNo="0" devices="tripinfo_mixed.6" vType="moped" vaporized=""/>
    <tripinfo id="mixed.15" depart="20.00" departLane="beg_1" departPos="2.20" departSpeed="0.00" departDelay="5.00" arrival="221.00" arrivalLane="end_0" arrivalPos="200.00" arrivalSpeed="15.12" duration="201.00" routeLength="497.80" waitSteps="148" timeLoss="168.42" rerouteNo="0" devices="tripinfo_mixed.15" vType="moped" vaporized=""/>
    <tripinfo id="mixed.17" depart="23.00" departLane="beg_0" departPos="5.10" departSpeed="0.00" departDelay="6.00" arrival="224.00" arrivalLane="end_1" arrivalPos="200.00" arrivalSpeed="12.84" duration="201.00" routeLength="494.90" waitSteps="145" timeLoss="165.10" rerouteNo="0" devices="tripinfo_mixed.17" vType="car" vaporized=""/>
    <tripinfo id="mixed.0" depart="0.00" departLane="beg_0" departPos="2.20" departSpeed="0.00" departDelay="0.00" arrival="225.00" arrivalLane="end_0" arrivalPos="200.00" arrivalSpeed="10.27" duration="225.00" routeLength="497.80" waitSteps="164" timeLoss="176.62" rerouteNo="0" devices="tripinfo_mixed.0" vType="moped" vaporized=""/>
    <tripinfo id="mixed.7" depart="10.00" departLane="beg_1" departPos="2.20" departSpeed="0.00" departDelay="3.00" arrival="226.00" arrivalLane="end_0" arrivalPos="200.00" arrivalSpeed="9.58" duration="216.00" routeLength="497.80" waitSteps="149" timeLoss="163.67" rerouteNo="0" devices="tripinfo_mixed.7" vType="moped" vaporized=""/>
    <tripinfo id="mixed.3" depart="4.00" departLane="beg_1" departPos="2.20" departSpeed="0.00" departDelay="1.00" arrival="226.00" arrivalLane="end_0" arrivalPos="200.00" arrivalSpeed="10.98" duration="222.00" routeLength="497.80" waitSteps="163" timeLoss="185.20" rerouteNo="0" devices="tripinfo_mixed.3" vType="moped" vaporized=""/>
    <tripinfo id="mixed.19" depart="27.00" departLane="beg_1" departPos="5.10" departSpeed="0.00" departDelay="8.00" arrival="226.00" arrivalLane="end_1" arrivalPos="200.00" arrivalSpeed="14.19" duration="199.00" routeLength="494.90" waitSteps="143" timeLoss="164.77" rerouteNo="0" devices="tripinfo_mixed.19" vType="car" vaporized=""/>
    <tripinfo id="mixed.5" depart="6.00" departLane="beg_0" departPos="5.10" departSpeed="0.00" departDelay="1.00" arrival="228.00" arrivalLane="end_0" arrivalPos="200.00" arrivalSpeed="12.17" duration="222.00" routeLength="494.90" waitSteps="160" timeLoss="186.65" rerouteNo="0" devices="tripinfo_mixed.5" vType="car" vaporized=""/>
    <tripinfo id="mixed.11" depart="16.00" departLane="beg_0" departPos="5.10" departSpeed="0.00" departDelay="5.00" arrival="228.00" arrivalLane="end_1" arrivalPos="200.00" arrivalSpeed="13.77" duration="212.00" routeLength="494.90" waitSteps="144" timeLoss="178.21" rerouteNo="0" devices="tripinfo_mixed.11" vType="car" vaporized=""/>
    <tripinfo id="mixed.9" depart="13.00" departLane="beg_0" departPos="5.10" departSpeed="0.00" departDelay="4.00" arrival="230.00" arrivalLane="end_0" arrivalPos="200.00" arrivalSpeed="10.94" duration="217.00" routeLength="494.90" waitSteps="154" timeLoss="171.72" rerouteNo="0" devices="tripinfo_mixed.9" vType="car" vaporized=""/>
    <tripinfo id="mixed.25" depart="37.00" departLane="beg_1" departPos="5.10" departSpeed="0.00" departDelay="12.00" arrival="230.00" arrivalLane="end_1" arrivalPos="200.00" arrivalSpeed="12.87" duration="193.00" routeLength="494.90" waitSteps="136" timeLoss="154.62" rerouteNo="0" devices="tripinfo_mixed.25" vType="car" vaporized=""/>
    <tripinfo id="mixed.8" depart="10.00" departLane="beg_0" departPos="5.10" departSpeed="0.00" departDelay="2.00" arrival="231.00" arrivalLane="end_0" arrivalPos="200.00" arrivalSpeed="13.24" duration="221.00" routeLength="494.90" waitSteps="149" timeLoss="192.31" rerouteNo="0" devices="tripinfo_mixed.8" vType="car" vaporized=""/>
    <tripinfo id="mixed.23" depart="33.00" departLane="beg_0" departPos="2.20" departSpeed="0.00" departDelay="10.00" arrival="231.00" arrivalLane="end_1" arrivalPos="200.00" arrivalSpeed="15.91" duration="198.00" routeLength="497.80" waitSteps="132" timeLoss="167.79" rerouteNo="0" devices="tripinfo_mixed.23" vType="moped" vaporized=""/>
    <tripinfo id="mixed.14" depart="19.00" departLane="beg_0" departPos="2.20" departSpeed="0.00" departDelay="5.00" arrival="233.00" arrivalLane="end_0" arrivalPos="200.00" arrivalSpeed="12.08" duration="214.00" routeLength="497.80" waitSteps="143" timeLoss="179.40" rerouteNo="0" devices="tripinfo_mixed.14" vType="moped" vaporized=""/>
    <tripinfo id="mixed.22" depart="33.00" departLane="beg_0" departPos="2.20" departSpeed="0.00" departDelay="11.00" arrival="233.00" arrivalLane="end_1" arrivalPos="200.00" arrivalSpeed="15.14" duration="200.00" routeLength="497.80" waitSteps="134" timeLoss="169.79" rerouteNo="0" devices="tripinfo_mixed.22" vType="moped" vaporized=""/>
    <tripinfo id="mixed.21" depart="31.00" departLane="beg_1" departPos="5.10" departSpeed="0.00" departDelay="10.00" arrival="234.00" arrivalLane="end_1" arrivalPos="200.00" arrivalSpeed="9.67" duration="203.00" routeLength="494.90" waitSteps="141" timeLoss="156.96" rerouteNo="0" devices="tripinfo_mixed.21" vType="car" vaporized=""/>
    <tripinfo id="mixed.4" depart="4.00" departLane="beg_0" departPos="2.20" departSpeed="0.00" departDelay="0.00" arrival="235.00" arrivalLane="end_0" arrivalPos="200.00" arrivalSpeed="7.04" duration="231.00" routeLength="497.80" waitSteps="152" timeLoss="164.31" rerouteNo="0" devices="tripinfo_mixed.4" vType="moped" vaporized=""/>
    <tripinfo id="mixed.24" depart="33.00" departLane="beg_1" departPos="2.20" departSpeed="0.00" departDelay="9.00" arrival="235.00" arrivalLane="end_0" arrivalPos="200.00" arrivalSpeed="10.50" duration="202.00" routeLength="497.80" waitSteps="139" timeLoss="165.26" rerouteNo="0" devices="tripinfo_mixed.24" vType="moped" vaporized=""/>
    <tripinfo id="mixed.32" depart="50.00" departLane="beg_1" departPos="5.10" departSpeed="0.00" departDelay="18.00" arrival="235.00" arrivalLane="end_1" arrivalPos="200.00" arrivalSpeed="13.68" duration="185.00" routeLength="494.90" waitSteps="126" timeLoss="151.59" rerouteNo="0" devices="tripinfo_mixed.32" vType="car" vaporized=""/>
    <tripinfo id="mixed.10" depart="14.00" departLane="beg_1" departPos="2.20" departSpeed="0.00" departDelay="4.00" arrival="236.00" arrivalLane="end_0" arrivalPos="200.00" arrivalSpeed="7.88" duration="222.00" routeLength="497.80" waitSteps="150" timeLoss="171.15" rerouteNo="0" devices="tripinfo_mixed.10" vType="moped" vaporized=""/>
    <tripinfo id="mixed.12" depart="18.00" departLane="beg_1" departPos="2.20" departSpeed="0.00" departDelay="6.00" arrival="236.00" arrivalLane="end_0" arrivalPos="200.00" arrivalSpeed="9.94" duration="218.00" routeLength="497.80" waitSteps="143" timeLoss="169.69" rerouteNo="0" devices="tripinfo_mixed.12" vType="moped" vaporized=""/>
    <tripinfo id="mixed.35" depart="54.00" departLane="beg_1" departPos="2.20" departSpeed="0.00" departDelay="19.00" arrival="237.00" arrivalLane="end_0" arrivalPos="200.00" arrivalSpeed="11.13" duration="183.00" routeLength="497.80" waitSteps="123" timeLoss="149.40" rerouteNo="0" devices="tripinfo_mixed.35" vType="moped" vaporized=""/>
    <tripinfo id="mixed.31" depart="45.00" departLane="beg_1" departPos="2.20" departSpeed="0.00" departDelay="14.00" arrival="237.00" arrivalLane="end_1" arrivalPos="200.00" arrivalSpeed="14.50" duration="192.00" routeLength="497.80" waitSteps="124" timeLoss="161.48" rerouteNo="0" devices="tripinfo_mixed.31" vType="moped" vaporized=""/>
    <tripinfo id="mixed.28" depart="41.00" departLane="beg_1" departPos="2.20" departSpeed="0.00" departDelay="13.00" arrival="238.00" arrivalLane="end_0" arrivalPos="200.00" arrivalSpeed="9.28" duration="197.00" routeLength="497.80" waitSteps="135" timeLoss="166.76" rerouteNo="0" devices="tripinfo_mixed.28" vType="moped" vaporized=""/>
    <tripinfo id="mixed.38" depart="58.00" departLane="beg_1" departPos="2.20" departSpeed="0.00" departDelay="20.00" arrival="238.00" arrivalLane="end_1" arrivalPos="200.00" arrivalSpeed="11.08" duration="180.00" routeLength="497.80" waitSteps="121" timeLoss="149.88" rerouteNo="0" devices="tripinfo_mixed.38" vType="moped" vaporized=""/>
    <tripinfo id="mixed.39" depart="59.00" departLane="beg_1" departPos="2.20" departSpeed="0.00" departDelay="20.00" arrival="238.00" arrivalLane="end_1" arrivalPos="200.00" arrivalSpeed="14.77" duration="179.00" routeLength="497.80" waitSteps="121" timeLoss="148.56" rerouteNo="0" devices="tripinfo_mixed.39" vType="moped" vaporized=""/>
    <tripinfo id="mixed.26" depart="39.00" departLane="beg_1" departPos="2.20" departSpeed="0.00" departDelay="13.00" arrival="239.00" arrivalLane="end_0" arrivalPos="200.00" arrivalSpeed="11.61" duration="200.00" routeLength="497.80" waitSteps="134" timeLoss="166.55" rerouteNo="0" devices="tripinfo_mixed.26" vType="moped" vaporized=""/>
    <tripinfo id="mixed.40" depart="61.00" departLane="beg_1" departPos="2.20" departSpeed="0.00" departDelay="21.00" arrival="240.00" arrivalLane="end_0" arrivalPos="200.00" arrivalSpeed="11.71" duration="179.00" routeLength="497.80" waitSteps="117" timeLoss="142.87" rerouteNo="0" devices="tripinfo_mixed.40" vType="moped" vaporized=""/>
    <tripinfo id="mixed.41" depart="61.00" departLane="beg_0" departPos="2.20" departSpeed="0.00" departDelay="20.00" arrival="240.00" arrivalLane="end_1" arrivalPos="200.00" arrivalSpeed="14.90" duration="179.00" routeLength="497.80" waitSteps="112" timeLoss="148.28" rerouteNo="0" devices="tripinfo_mixed.41" vType="moped" vaporized=""/>
    <tripinfo id="mixed.16" depart="23.00" departLane="beg_1" departPos="2.20" departSpeed="0.00" departDelay="7.00" arrival="241.00" arrivalLane="end_0" arrivalPos="200.00" arrivalSpeed="7.29" duration="218.00" routeLength="497.80" waitSteps="140" timeLoss="153.00" rerouteNo="0" devices="tripinfo_mixed.16" vType="moped" vaporized=""/>
    <tripinfo id="mixed.46" depart="69.00" departLane="beg_1" departPos="2.20" departSpeed="0.00" departDelay="23.00" arrival="241.00" arrivalLane="end_0" arrivalPos="200.00" arrivalSpeed="11.27" duration="172.00" routeLength="497.80" waitSteps="112" timeLoss="141.83" rerouteNo="0" devices="tripinfo_mixed.46" vType="moped" vaporized=""/>
    <tripinfo id="mixed.27" depart="41.00" departLane="beg_1" departPos="2.20" departSpeed="0.00" departDelay="14.00" arrival="242.00" arrivalLane="end_0" arrivalPos="200.00" arrivalSpeed="8.91" duration="201.00" routeLength="497.80" waitSteps="131" timeLoss="153.46" rerouteNo="0" devices="tripinfo_mixed.27" vType="moped" vaporized=""/>
    <tripinfo id="mixed.45" depart="69.00" departLane="beg_0" departPos="5.10" departSpeed="0.00" departDelay="24.00" arrival="242.00" arrivalLane="end_1" arrivalPos="200.00" arrivalSpeed="12.76" duration="173.00" routeLength="494.90" waitSteps="111" timeLoss="136.50" rerouteNo="0" devices="tripinfo_mixed.45" vType="car" vaporized=""/>
    <tripinfo id="mixed.13" depart="18.00" departLane="beg_0" departPos="2.20" departSpeed="0.00" departDelay="5.00" arrival="244.00" arrivalLane="end_0" arrivalPos="200.00" arrivalSpeed="9.56" duration="226.00" routeLength="497.80" waitSteps="139" timeLoss="195.70" rerouteNo="0" devices="tripinfo_mixed.13" vType="moped" vaporized=""/>
    <tripinfo id="mixed.52" depart="76.00" departLane="beg_1" departPos="5.10" departSpeed="0.00" departDelay="24.00" arrival="244.00" arrivalLane="end_1" arrivalPos="200.00" arrivalSpeed="13.63" duration="168.00" routeLength="494.90" waitSteps="105" timeLoss="132.87" rerouteNo="0" devices="tripinfo_mixed.52" vType="car" vaporized=""/>
    <tripinfo id="mixed.54" depart="80.00" departLane="beg_1" departPos="5.10" departSpeed="0.00" departDelay="26.00" arrival="245.00" arrivalLane="end_1" arrivalPos="200.00" arrivalSpeed="15.05" duration="165.00" routeLength="494.90" waitSteps="104" timeLoss="132.49" rerouteNo="0" devices="tripinfo_mixed.54" vType="car" vaporized=""/>
    <tripinfo id="mixed.56" depart="83.00" departLane="beg_0" departPos="5.10" departSpeed="0.00" departDelay="27.00" arrival="247.00" arrivalLane="end_0" arrivalPos="200.00" arrivalSpeed="14.02" duration="164.00" routeLength="494.90" waitSteps="101" timeLoss="129.86" rerouteNo="0" devices="tripinfo_mixed.56" vType="car" vaporized=""/>
    <tripinfo id="mixed.60" depart="91.00" departLane="beg_1" departPos="5.10" departSpeed="0.00" departDelay="31.00" arrival="249.00" arrivalLane="end_0" arrivalPos="200.00" arrivalSpeed="13.49" duration="158.00" routeLength="494.90" waitSteps="100" timeLoss="122.73" rerouteNo="0" devices="tripinfo_mixed.60" vType="car" vaporized=""/>
    <tripinfo id="mixed.64" depart="96.00" departLane="beg_0" departPos="5.10" departSpeed="0.00" departDelay="32.00" arrival="250.00" arrivalLane="end_1" arrivalPos="200.00" arrivalSpeed="13.10" duration="154.00" routeLength="494.90" waitSteps="96" timeLoss="118.70" rerouteNo="0" devices="tripinfo_mixed.64" vType="car" vaporized=""/>
    <tripinfo id="mixed.63" depart="93.00" departLane="beg_1" departPos="2.20" departSpeed="0.00" departDelay="30.00" arrival="251.00" arrivalLane="end_0" arrivalPos="200.00" arrivalSpeed="12.74" duration="158.00" routeLength="497.80" waitSteps="94" timeLoss="118.26" rerouteNo="0" devices="tripinfo_mixed.63" vType="moped" vaporized=""/>
    <tripinfo id="mixed.67" depart="100.00" departLane="beg_1" departPos="2.20" departSpeed="0.00" departDelay="33.00" arrival="252.00" arrivalLane="end_1" arrivalPos="200.00" arrivalSpeed="13.08" duration="152.00" routeLength="497.80" waitSteps="94" timeLoss="121.82" rerouteNo="0" devices="tripinfo_mixed.67" vType="moped" vaporized=""/>
    <tripinfo id="mixed.71" depart="106.00" departLane="beg_1" departPos="5.10" departSpeed="0.00" departDelay="35.00" arrival="252.00" arrivalLane="end_1" arrivalPos="200.00" arrivalSpeed="17.36" duration="146.00" routeLength="494.90" waitSteps="88" timeLoss="118.06" rerouteNo="0" devices="tripinfo_mixed.71" vType="car" vaporized=""/>
    <tripinfo id="mixed.36" depart="54.00" departLane="beg_1" departPos="2.20" departSpeed="0.00" departDelay="18.00" arrival="254.00" arrivalLane="end_0" arrivalPos="200.00" arrivalSpeed="6.93" duration="200.00" routeLength="497.80" waitSteps="115" timeLoss="128.62" rerouteNo="0" devices="tripinfo_mixed.36" vType="moped" vaporized=""/>
    <tripinfo id="mixed.37" depart="58.00" departLane="beg_0" departPos="2.20" departSpeed="0.00" departDelay="21.00" arrival="254.00" arrivalLane="end_1" arrivalPos="200.00" arrivalSpeed="16.13" duration="196.00" routeLength="497.80" waitSteps="110" timeLoss="165.40" rerouteNo="0" devices="tripinfo_mixed.37" vType="moped" vaporized=""/>
    <tripinfo id="mixed.76" depart="115.00" departLane="beg_1" departPos="2.20" departSpeed="0.00" departDelay="39.00" arrival="254.00" arrivalLane="end_1" arrivalPos="200.00" arrivalSpeed="16.66" duration="139.00" routeLength="497.80" waitSteps="75" timeLoss="108.69" rerouteNo="0" devices="tripinfo_mixed.76" vType="moped" vaporized=""/>
    <tripinfo id="mixed.68" depart="100.00" departLane="beg_1" departPos="2.20" departSpeed="0.00" departDelay="32.00" arrival="255.00" arrivalLane="end_1" arrivalPos="200.00" arrivalSpeed="16.36" duration="155.00" routeLength="497.80" waitSteps="85" timeLoss="124.78" rerouteNo="0" devices="tripinfo_mixed.68" vType="moped" vaporized=""/>
    <tripinfo id="mixed.18" depart="27.00" departLane="beg_0" departPos="5.10" departSpeed="0.00" departDelay="9.00" arrival="256.00" arrivalLane="end_0" arrivalPos="200.00" arrivalSpeed="9.08" duration="229.00" routeLength="494.90" waitSteps="133" timeLoss="180.47" rerouteNo="0" devices="tripinfo_mixed.18" vType="car" vaporized=""/>
    <tripinfo id="mixed.1" depart="1.00" departLane="beg_1" departPos="2.20" departSpeed="0.00" departDelay="0.00" arrival="257.00" arrivalLane="end_0" arrivalPos="200.00" arrivalSpeed="4.90" duration="256.00" routeLength="497.80" waitSteps="141" timeLoss="154.65" rerouteNo="0" devices="tripinfo_mixed.1" vType="moped" vaporized=""/>
    <tripinfo id="mixed.80" depart="121.00" departLane="beg_1" departPos="2.20" departSpeed="0.00" departDelay="41.00" arrival="257.00" arrivalLane="end_1" arrivalPos="200.00" arrivalSpeed="16.60" duration="136.00" routeLength="497.80" waitSteps="76" timeLoss="105.27" rerouteNo="0" devices="tripinfo_mixed.80" vType="moped" vaporized=""/>
    <tripinfo id="mixed.20" depart="30.00" departLane="beg_0" departPos="5.10" departSpeed="0.00" departDelay="10.00" arrival="258.00" arrivalLane="end_0" arrivalPos="200.00" arrivalSpeed="16.05" duration="228.00" routeLength="494.90" waitSteps="133" timeLoss="199.01" rerouteNo="0" devices="tripinfo_mixed.20" vType="car" vaporized=""/>
    <tripinfo id="mixed.84" depart="126.00" departLane="beg_0" departPos="5.10" departSpeed="0.00" departDelay="42.00" arrival="259.00" arrivalLane="end_1" arrivalPos="200.00" arrivalSpeed="15.60" duration="133.00" routeLength="494.90" waitSteps="71" timeLoss="102.33" rerouteNo="0" devices="tripinfo_mixed.84" vType="car" vaporized=""/>
    <tripinfo id="mixed.34" depart="54.00" departLane="beg_0" departPos="5.10" departSpeed="0.00" departDelay="20.00" arrival="260.00" arrivalLane="end_0" arrivalPos="200.00" arrivalSpeed="10.99" duration="206.00" routeLength="494.90" waitSteps="123" timeLoss="161.34" rerouteNo="0" devices="tripinfo_mixed.34" vType="car" vaporized=""/>
    <tripinfo id="mixed.87" depart="131.00" departLane="beg_1" departPos="2.20" departSpeed="0.00" departDelay="44.00" arrival="260.00" arrivalLane="end_1" arrivalPos="200.00" arrivalSpeed="16.22" duration="129.00" routeLength="497.80" waitSteps="68" timeLoss="98.87" rerouteNo="0" devices="tripinfo_mixed.87" vType="moped" vaporized=""/>
    <tripinfo id="mixed.55" depart="83.00" departLane="beg_1" departPos="5.10" departSpeed="0.00" departDelay="28.00" arrival="262.00" arrivalLane="end_0" arrivalPos="200.00" arrivalSpeed="14.14" duration="179.00" routeLength="494.90" waitSteps="102" timeLoss="149.66" rerouteNo="0" devices="tripinfo_mixed.55" vType="car" vaporized=""/>
    <tripinfo id="mixed.61" depart="91.00" departLane="beg_0" departPos="2.20" departSpeed="0.00" departDelay="30.00" arrival="262.00" arrivalLane="end_1" arrivalPos="200.00" arrivalSpeed="16.66" duration="171.00" routeLength="497.80" waitSteps="85" timeLoss="140.20" rerouteNo="0" devices="tripinfo_mixed.61" vType="moped" vaporized=""/>
    <tripinfo id="mixed.96" depart="152.00" departLane="beg_1" departPos="5.10" departSpeed="0.00" departDelay="56.00" arrival="262.00" arrivalLane="end_1" arrivalPos="200.00" arrivalSpeed="16.95" duration="110.00" routeLength="494.90" waitSteps="57" timeLoss="80.38" rerouteNo="0" devices="tripinfo_mixed.96" vType="car" vaporized=""/>
    <tripinfo id="mixed.2" depart="2.00" departLane="beg_0" departPos="2.20" departSpeed="0.00" departDelay="0.00" arrival="264.00" arrivalLane="end_0" arrivalPos="200.00" arrivalSpeed="4.27" duration="262.00" routeLength="497.80" waitSteps="137" timeLoss="150.69" rerouteNo="0" devices="tripinfo_mixed.2" vType="moped" vaporized=""/>
    <tripinfo id="mixed.58" depart="87.00" departLane="beg_0" departPos="5.10" departSpeed="0.00" departDelay="29.00" arrival="264.00" arrivalLane="end_0" arrivalPos="200.00" arrivalSpeed="14.86" duration="177.00" routeLength="494.90" waitSteps="97" timeLoss="145.92" rerouteNo="0" devices="tripinfo_mixed.58" vType="car" vaporized=""/>
    <tripinfo id="mixed.92" depart="144.00" departLane="beg_1" departPos="5.10" departSpeed="0.00" departDelay="52.00" arrival="264.00" arrivalLane="end_1" arrivalPos="200.00" arrivalSpeed="14.27" duration="120.00" routeLength="494.90" waitSteps="61" timeLoss="85.43" rerouteNo="0" devices="tripinfo_mixed.92" vType="car" vaporized=""/>
    <tripinfo id="mixed.30" depart="44.00" departLane="beg_0" departPos="2.20" departSpeed="0.00" departDelay="14.00" arrival="266.00" arrivalLane="end_0" arrivalPos="200.00" arrivalSpeed="6.58" duration="222.00" routeLength="497.80" waitSteps="132" timeLoss="189.47" rerouteNo="0" devices="tripinfo_mixed.30" vType="moped" vaporized=""/>
    <tripinfo id="mixed.44" depart="66.00" departLane="beg_0" departPos="5.10" departSpeed="0.00" departDelay="22.00" arrival="266.00" arrivalLane="end_0" arrivalPos="200.00" arrivalSpeed="14.01" duration="200.00" routeLength="494.90" waitSteps="95" timeLoss="164.94" rerouteNo="0" devices="tripinfo_mixed.44" vType="car" vaporized=""/>
    <tripinfo id="mixed.97" depart="153.00" departLane="beg_0" departPos="2.20" departSpeed="0.00" departDelay="56.00" arrival="266.00" arrivalLane="end_1" arrivalPos="200.00" arrivalSpeed="16.53" duration="113.00" routeLength="497.80" waitSteps="47" timeLoss="82.09" rerouteNo="0" devices="tripinfo_mixed.97" vType="moped" vaporized=""/>
    <tripinfo id="mixed.43" depart="65.00" departLane="beg_1" departPos="2.20" departSpeed="0.00" departDelay="22.00" arrival="267.00" arrivalLane="end_0" arrivalPos="200.00" arrivalSpeed="6.27" duration="202.00" routeLength="497.80" waitSteps="112" timeLoss="159.47" rerouteNo="0" devices="tripinfo_mixed.43" vType="moped" vaporized=""/>
    <tripinfo id="mixed.98" depart="155.00" departLane="beg_1" departPos="5.10" departSpeed="0.00" departDelay="57.00" arrival="268.00" arrivalLane="end_1" arrivalPos="200.00" arrivalSpeed="14.57" duration="113.00" routeLength="494.90" waitSteps="54" timeLoss="78.58" rerouteNo="0" devices="tripinfo_mixed.98" vType="car" vaporized=""/>
    <tripinfo id="mixed.70" depart="105.00" departLane="beg_0" departPos="5.10" departSpeed="0.00" departDelay="35.00" arrival="268.00" arrivalLane="end_1" arrivalPos="200.00" arrivalSpeed="10.72" duration="163.00" routeLength="494.90" waitSteps="85" timeLoss="118.76" rerouteNo="0" devices="tripinfo_mixed.70" vType="car" vaporized=""/>
    <tripinfo id="mixed.53" depart="78.00" departLane="beg_0" departPos="2.20" departSpeed="0.00" departDelay="25.00" arrival="269.00" arrivalLane="end_0" arrivalPos="200.00" arrivalSpeed="9.83" duration="191.00" routeLength="497.80" waitSteps="95" timeLoss="139.87" rerouteNo="0" devices="tripinfo_mixed.53" vType="moped" vaporized=""/>
    <tripinfo id="mixed.51" depart="73.00" departLane="beg_0" departPos="2.20" departSpeed="0.00" departDelay="22.00" arrival="270.00" arrivalLane="end_0" arrivalPos="200.00" arrivalSpeed="10.62" duration="197.00" routeLength="497.80" waitSteps="88" timeLoss="151.42" rerouteNo="0" devices="tripinfo_mixed.51" vType="moped" vaporized=""/>
    <tripinfo id="mixed.95" depart="150.00" departLane="beg_0" departPos="5.10" departSpeed="0.00" departDelay="55.00" arrival="270.00" arrivalLane="end_1" arrivalPos="200.00" arrivalSpeed="13.03" duration="120.00" routeLength="494.90" waitSteps="61" timeLoss="83.79" rerouteNo="0" devices="tripinfo_mixed.95" vType="car" vaporized=""/>
    <tripinfo id="mixed.75" depart="112.00" departLane="beg_1" departPos="5.10" departSpeed="0.00" departDelay="37.00" arrival="270.00" arrivalLane="end_1" arrivalPos="200.00" arrivalSpeed="11.55" duration="158.00" routeLength="494.90" waitSteps="83" timeLoss="117.75" rerouteNo="0" devices="tripinfo_mixed.75" vType="car" vaporized=""/>
    <tripinfo id="mixed.65" depart="97.00" departLane="beg_1" departPos="2.20" departSpeed="0.00" departDelay="32.00" arrival="272.00" arrivalLane="end_0" arrivalPos="200.00" arrivalSpeed="10.22" duration="175.00" routeLength="497.80" waitSteps="87" timeLoss="127.75" rerouteNo="0" devices="tripinfo_mixed.65" vType="moped" vaporized=""/>
    <tripinfo id="mixed.78" depart="116.00" departLane="beg_0" departPos="5.10" departSpeed="0.00" departDelay="38.00" arrival="272.00" arrivalLane="end_1" arrivalPos="200.00" arrivalSpeed="14.74" duration="156.00" routeLength="494.90" waitSteps="81" timeLoss="121.81" rerouteNo="0" devices="tripinfo_mixed.78" vType="car" vaporized=""/>
    <tripinfo id="mixed.88" depart="135.00" departLane="beg_1" departPos="5.10" departSpeed="0.00" departDelay="47.00" arrival="272.00" arrivalLane="end_1" arrivalPos="200.00" arrivalSpeed="12.44" duration="137.00" routeLength="494.90" waitSteps="72" timeLoss="100.01" rerouteNo="0" devices="tripinfo_mixed.88" vType="car" vaporized=""/>
    <tripinfo id="mixed.86" depart="130.00" departLane="beg_0" departPos="2.20" departSpeed="0.00" departDelay="44.00" arrival="273.00" arrivalLane="end_0" arrivalPos="200.00" arrivalSpeed="15.01" duration="143.00" routeLength="497.80" waitSteps="75" timeLoss="113.00" rerouteNo="0" devices="tripinfo_mixed.86" vType="moped" vaporized=""/>
    <tripinfo id="mixed.94" depart="147.00" departLane="beg_1" departPos="2.20" departSpeed="0.00" departDelay="53.00" arrival="273.00" arrivalLane="end_1" arrivalPos="200.00" arrivalSpeed="14.02" duration="126.00" routeLength="497.80" waitSteps="56" timeLoss="93.97" rerouteNo="0" devices="tripinfo_mixed.94" vType="moped" vaporized=""/>
    <tripinfo id="mixed.29" depart="41.00" departLane="beg_0" departPos="2.20" departSpeed="0.00" departDelay="12.00" arrival="274.00" arrivalLane="end_0" arrivalPos="200.00" arrivalSpeed="4.61" duration="233.00" routeLength="497.80" waitSteps="112" timeLoss="127.35" rerouteNo="0" devices="tripinfo_mixed.29" vType="moped" vaporized=""/>
    <tripinfo id="mixed.48" depart="71.00" departLane="beg_1" departPos="2.20" departSpeed="0.00" departDelay="23.00" arrival="275.00" arrivalLane="end_0" arrivalPos="200.00" arrivalSpeed="11.42" duration="204.00" routeLength="497.80" waitSteps="113" timeLoss="165.47" rerouteNo="0" devices="tripinfo_mixed.48" vType="moped" vaporized=""/>
    <tripinfo id="mixed.72" depart="107.00" departLane="beg_0" departPos="2.20" departSpeed="0.00" departDelay="35.00" arrival="275.00" arrivalLane="end_1" arrivalPos="200.00" arrivalSpeed="15.08" duration="168.00" routeLength="497.80" waitSteps="79" timeLoss="137.54" rerouteNo="0" devices="tripinfo_mixed.72" vType="moped" vaporized=""/>
    <tripinfo id="mixed.42" depart="63.00" departLane="beg_1" departPos="2.20" departSpeed="0.00" departDelay="21.00" arrival="276.00" arrivalLane="end_0" arrivalPos="200.00" arrivalSpeed="5.58" duration="213.00" routeLength="497.80" waitSteps="112" timeLoss="152.56" rerouteNo="0" devices="tripinfo_mixed.42" vType="moped" vaporized=""/>
    <tripinfo id="mixed.77" depart="116.00" departLane="beg_1" departPos="2.20" departSpeed="0.00" departDelay="39.00" arrival="276.00" arrivalLane="end_0" arrivalPos="200.00" arrivalSpeed="11.25" duration="160.00" routeLength="497.80" waitSteps="79" timeLoss="129.93" rerouteNo="0" devices="tripinfo_mixed.77" vType="moped" vaporized=""/>
    <tripinfo id="mixed.49" depart="72.00" departLane="beg_1" departPos="2.20" departSpeed="0.00" departDelay="23.00" arrival="278.00" arrivalLane="end_0" arrivalPos="200.00" arrivalSpeed="5.83" duration="206.00" routeLength="497.80" waitSteps="112" timeLoss="163.04" rerouteNo="0" devices="tripinfo_mixed.49" vType="moped" vaporized=""/>
    <tripinfo id="mixed.69" depart="102.00" departLane="beg_0" departPos="5.10" departSpeed="0.00" departDelay="33.00" arrival="278.00" arrivalLane="end_0" arrivalPos="200.00" arrivalSpeed="9.87" duration="176.00" routeLength="494.90" waitSteps="88" timeLoss="126.48" rerouteNo="0" devices="tripinfo_mixed.69" vType="car" vaporized=""/>
    <tripinfo id="mixed.50" depart="73.00" departLane="beg_0" departPos="2.20" departSpeed="0.00" departDelay="23.00" arrival="280.00" arrivalLane="end_0" arrivalPos="200.00" arrivalSpeed="6.36" duration="207.00" routeLength="497.80" waitSteps="109" timeLoss="149.51" rerouteNo="0" devices="tripinfo_mixed.50" vType="moped" vaporized=""/>
    <tripinfo id="mixed.89" depart="136.00" departLane="beg_1" departPos="2.20" departSpeed="0.00" departDelay="47.00" arrival="280.00" arrivalLane="end_1" arrivalPos="200.00" arrivalSpeed="11.40" duration="144.00" routeLength="497.80" waitSteps="69" timeLoss="104.08" rerouteNo="0" devices="tripinfo_mixed.89" vType="moped" vaporized=""/>
    <tripinfo id="mixed.90" depart="140.00" departLane="beg_1" departPos="2.20" departSpeed="0.00" departDelay="50.00" arrival="281.00" arrivalLane="end_1" arrivalPos="200.00" arrivalSpeed="10.51" duration="141.00" routeLength="497.80" waitSteps="65" timeLoss="93.31" rerouteNo="0" devices="tripinfo_mixed.90" vType="moped" vaporized=""/>
    <tripinfo id="mixed.85" depart="129.00" departLane="beg_0" departPos="2.20" departSpeed="0.00" departDelay="44.00" arrival="282.00" arrivalLane="end_0" arrivalPos="200.00" arrivalSpeed="11.86" duration="153.00" routeLength="497.80" waitSteps="73" timeLoss="111.41" rerouteNo="0" devices="tripinfo_mixed.85" vType="moped" vaporized=""/>
    <tripinfo id="mixed.47" depart="69.00" departLane="beg_0" departPos="2.20" departSpeed="0.00" departDelay="22.00" arrival="282.00" arrivalLane="end_0" arrivalPos="200.00" arrivalSpeed="7.49" duration="213.00" routeLength="497.80" waitSteps="109" timeLoss="176.40" rerouteNo="0" devices="tripinfo_mixed.47" vType="moped" vaporized=""/>