<?xml version="1.0" encoding="UTF-8"?>

<!-- generated on Wed Dec 16 15:23:46 2015 by SUMO Version dev-SVN-r19615
<?xml version="1.0" encoding="UTF-8"?>

<configuration xmlns:xsi="http://www.w3.org/2001/XMLSchema-instance" xsi:noNamespaceSchemaLocation="http://sumo.dlr.de/xsd/sumoConfiguration.xsd">

    <input>
        <net-file value="net.net.xml"/>
        <route-files value="input_routes.rou.xml"/>
    </input>

    <output>
        <tripinfo-output value="tripinfos.xml"/>
    </output>

    <processing>
        <lateral-resolution value="0.64"/>
    </processing>

    <report>
        <xml-validation value="never"/>
        <no-step-log value="true"/>
    </report>

</configuration>
-->

<tripinfos xmlns:xsi="http://www.w3.org/2001/XMLSchema-instance" xsi:noNamespaceSchemaLocation="http://sumo.dlr.de/xsd/tripinfo_file.xsd">
    <tripinfo id="mixed.8" depart="13.00" departLane="beg_1" departPos="5.10" departSpeed="0.00" departDelay="5.00" arrival="215.00" arrivalLane="end_0" arrivalPos="200.00" arrivalSpeed="16.92" duration="202.00" routeLength="494.90" waitSteps="160" timeLoss="172.88" rerouteNo="0" devices="tripinfo_mixed.8" vType="car" vaporized=""/>
    <tripinfo id="mixed.5" depart="7.00" departLane="beg_1" departPos="5.10" departSpeed="0.00" departDelay="2.00" arrival="217.00" arrivalLane="end_0" arrivalPos="200.00" arrivalSpeed="13.14" duration="210.00" routeLength="494.90" waitSteps="164" timeLoss="175.20" rerouteNo="0" devices="tripinfo_mixed.5" vType="car" vaporized=""/>
    <tripinfo id="mixed.11" depart="20.00" departLane="beg_1" departPos="5.10" departSpeed="0.00" departDelay="9.00" arrival="218.00" arrivalLane="end_0" arrivalPos="200.00" arrivalSpeed="14.02" duration="198.00" routeLength="494.90" waitSteps="153" timeLoss="164.91" rerouteNo="0" devices="tripinfo_mixed.11" vType="car" vaporized=""/>
    <tripinfo id="mixed.6" depart="8.00" departLane="beg_0" departPos="2.20" departSpeed="0.00" departDelay="2.00" arrival="221.00" arrivalLane="end_0" arrivalPos="200.00" arrivalSpeed="16.53" duration="213.00" routeLength="497.80" waitSteps="159" timeLoss="182.79" rerouteNo="0" devices="tripinfo_mixed.6" vType="moped" vaporized=""/>
    <tripinfo id="mixed.9" depart="16.00" departLane="beg_1" departPos="5.10" departSpeed="0.00" departDelay="7.00" arrival="223.00" arrivalLane="end_0" arrivalPos="200.00" arrivalSpeed="10.10" duration="207.00" routeLength="494.90" waitSteps="150" timeLoss="162.02" rerouteNo="0" devices="tripinfo_mixed.9" vType="car" vaporized=""/>
    <tripinfo id="mixed.20" depart="33.00" departLane="beg_0" departPos="5.10" departSpeed="0.00" departDelay="13.00" arrival="224.00" arrivalLane="end_1" arrivalPos="200.00" arrivalSpeed="17.11" duration="191.00" routeLength="494.90" waitSteps="131" timeLoss="162.26" rerouteNo="0" devices="tripinfo_mixed.20" vType="car" vaporized=""/>
    <tripinfo id="mixed.17" depart="27.00" departLane="beg_1" departPos="5.10" departSpeed="0.00" departDelay="10.00" arrival="225.00" arrivalLane="end_0" arrivalPos="200.00" arrivalSpeed="13.18" duration="198.00" routeLength="494.90" waitSteps="146" timeLoss="162.07" rerouteNo="0" devices="tripinfo_mixed.17" vType="car" vaporized=""/>
    <tripinfo id="mixed.0" depart="0.00" departLane="beg_0" departPos="2.20" departSpeed="0.00" departDelay="0.00" arrival="225.00" arrivalLane="end_0" arrivalPos="200.00" arrivalSpeed="10.42" duration="225.00" routeLength="497.80" waitSteps="164" timeLoss="176.82" rerouteNo="0" devices="tripinfo_mixed.0" vType="moped" vaporized=""/>
    <tripinfo id="mixed.3" depart="4.00" departLane="beg_1" departPos="2.20" departSpeed="0.00" departDelay="1.00" arrival="226.00" arrivalLane="end_0" arrivalPos="200.00" arrivalSpeed="10.70" duration="222.00" routeLength="497.80" waitSteps="161" timeLoss="185.40" rerouteNo="0" devices="tripinfo_mixed.3" vType="moped" vaporized=""/>
    <tripinfo id="mixed.15" depart="25.00" departLane="beg_0" departPos="2.20" departSpeed="0.00" departDelay="10.00" arrival="226.00" arrivalLane="end_0" arrivalPos="200.00" arrivalSpeed="12.72" duration="201.00" routeLength="497.80" waitSteps="137" timeLoss="168.69" rerouteNo="0" devices="tripinfo_mixed.15" vType="moped" vaporized=""/>
    <tripinfo id="mixed.22" depart="35.00" departLane="beg_0" departPos="2.20" departSpeed="0.00" departDelay="13.00" arrival="227.00" arrivalLane="end_1" arrivalPos="200.00" arrivalSpeed="16.15" duration="192.00" routeLength="497.80" waitSteps="128" timeLoss="161.33" rerouteNo="0" devices="tripinfo_mixed.22" vType="moped" vaporized=""/>
    <tripinfo id="mixed.19" depart="30.00" departLane="beg_0" departPos="5.10" departSpeed="0.00" departDelay="11.00" arrival="227.00" arrivalLane="end_1" arrivalPos="200.00" arrivalSpeed="13.86" duration="197.00" routeLength="494.90" waitSteps="137" timeLoss="162.94" rerouteNo="0" devices="tripinfo_mixed.19" vType="car" vaporized=""/>
    <tripinfo id="mixed.14" depart="22.00" departLane="beg_0" departPos="2.20" departSpeed="0.00" departDelay="8.00" arrival="228.00" arrivalLane="end_0" arrivalPos="200.00" arrivalSpeed="14.27" duration="206.00" routeLength="497.80" waitSteps="146" timeLoss="170.69" rerouteNo="0" devices="tripinfo_mixed.14" vType="moped" vaporized=""/>
    <tripinfo id="mixed.23" depart="35.00" departLane="beg_0" departPos="2.20" departSpeed="0.00" departDelay="12.00" arrival="228.00" arrivalLane="end_0" arrivalPos="200.00" arrivalSpeed="15.88" duration="193.00" routeLength="497.80" waitSteps="126" timeLoss="162.99" rerouteNo="0" devices="tripinfo_mixed.23" vType="moped" vaporized=""/>
    <tripinfo id="mixed.7" depart="11.00" departLane="beg_1" departPos="2.20" departSpeed="0.00" departDelay="4.00" arrival="229.00" arrivalLane="end_0" arrivalPos="200.00" arrivalSpeed="9.30" duration="218.00" routeLength="497.80" waitSteps="148" timeLoss="166.14" rerouteNo="0" devices="tripinfo_mixed.7" vType="moped" vaporized=""/>
    <tripinfo id="mixed.18" depart="30.00" departLane="beg_1" departPos="5.10" departSpeed="0.00" departDelay="12.00" arrival="233.00" arrivalLane="end_0" arrivalPos="200.00" arrivalSpeed="9.99" duration="203.00" routeLength="494.90" waitSteps="132" timeLoss="155.04" rerouteNo="0" devices="tripinfo_mixed.18" vType="car" vaporized=""/>
    <tripinfo id="mixed.21" depart="33.00" departLane="beg_1" departPos="5.10" departSpeed="0.00" departDelay="12.00" arrival="233.00" arrivalLane="end_1" arrivalPos="200.00" arrivalSpeed="10.72" duration="200.00" routeLength="494.90" waitSteps="134" timeLoss="153.82" rerouteNo="0" devices="tripinfo_mixed.21" vType="car" vaporized=""/>
    <tripinfo id="mixed.26" depart="41.00" departLane="beg_0" departPos="2.20" departSpeed="0.00" departDelay="15.00" arrival="234.00" arrivalLane="end_1" arrivalPos="200.00" arrivalSpeed="12.50" duration="193.00" routeLength="497.80" waitSteps="126" timeLoss="159.38" rerouteNo="0" devices="tripinfo_mixed.26" vType="moped" vaporized=""/>
    <tripinfo id="mixed.4" depart="4.00" departLane="beg_0" departPos="2.20" departSpeed="0.00" departDelay="0.00" arrival="235.00" arrivalLane="end_0" arrivalPos="200.00" arrivalSpeed="7.38" duration="231.00" routeLength="497.80" waitSteps="151" timeLoss="164.44" rerouteNo="0" devices="tripinfo_mixed.4" vType="moped" vaporized=""/>
    <tripinfo id="mixed.25" depart="40.00" departLane="beg_1" departPos="5.10" departSpeed="0.00" departDelay="15.00" arrival="235.00" arrivalLane="end_0" arrivalPos="200.00" arrivalSpeed="12.38" duration="195.00" routeLength="494.90" waitSteps="133" timeLoss="156.49" rerouteNo="0" devices="tripinfo_mixed.25" vType="car" vaporized=""/>
    <tripinfo id="mixed.32" depart="51.00" departLane="beg_1" departPos="5.10" departSpeed="0.00" departDelay="19.00" arrival="236.00" arrivalLane="end_1" arrivalPos="200.00" arrivalSpeed="14.27" duration="185.00" routeLength="494.90" waitSteps="125" timeLoss="151.16" rerouteNo="0" devices="tripinfo_mixed.32" vType="car" vaporized=""/>
    <tripinfo id="mixed.10" depart="16.00" departLane="beg_0" departPos="2.20" departSpeed="0.00" departDelay="6.00" arrival="237.00" arrivalLane="end_0" arrivalPos="200.00" arrivalSpeed="8.56" duration="221.00" routeLength="497.80" waitSteps="149" timeLoss="169.43" rerouteNo="0" devices="tripinfo_mixed.10" vType="moped" vaporized=""/>
    <tripinfo id="mixed.35" depart="55.00" departLane="beg_1" departPos="2.20" departSpeed="0.00" departDelay="20.00" arrival="237.00" arrivalLane="end_0" arrivalPos="200.00" arrivalSpeed="11.73" duration="182.00" routeLength="497.80" waitSteps="123" timeLoss="148.47" rerouteNo="0" devices="tripinfo_mixed.35" vType="moped" vaporized=""/>
    <tripinfo id="mixed.13" depart="22.00" departLane="beg_0" departPos="2.20" departSpeed="0.00" departDelay="9.00" arrival="238.00" arrivalLane="end_0" arrivalPos="200.00" arrivalSpeed="8.55" duration="216.00" routeLength="497.80" waitSteps="147" timeLoss="185.89" rerouteNo="0" devices="tripinfo_mixed.13" vType="moped" vaporized=""/>
    <tripinfo id="mixed.41" depart="63.00" departLane="beg_1" departPos="2.20" departSpeed="0.00" departDelay="22.00" arrival="238.00" arrivalLane="end_0" arrivalPos="200.00" arrivalSpeed="12.59" duration="175.00" routeLength="497.80" waitSteps="117" timeLoss="144.87" rerouteNo="0" devices="tripinfo_mixed.41" vType="moped" vaporized=""/>
    <tripinfo id="mixed.39" depart="60.00" departLane="beg_0" departPos="2.20" departSpeed="0.00" departDelay="21.00" arrival="238.00" arrivalLane="end_1" arrivalPos="200.00" arrivalSpeed="14.24" duration="178.00" routeLength="497.80" waitSteps="116" timeLoss="146.93" rerouteNo="0" devices="tripinfo_mixed.39" vType="moped" vaporized=""/>
    <tripinfo id="mixed.37" depart="57.00" departLane="beg_1" departPos="2.20" departSpeed="0.00" departDelay="20.00" arrival="238.00" arrivalLane="end_1" arrivalPos="200.00" arrivalSpeed="13.03" duration="181.00" routeLength="497.80" waitSteps="119" timeLoss="150.36" rerouteNo="0" devices="tripinfo_mixed.37" vType="moped" vaporized=""/>
    <tripinfo id="mixed.46" depart="71.00" departLane="beg_1" departPos="2.20" departSpeed="0.00" departDelay="25.00" arrival="239.00" arrivalLane="end_1" arrivalPos="200.00" arrivalSpeed="13.43" duration="168.00" routeLength="497.80" waitSteps="100" timeLoss="137.62" rerouteNo="0" devices="tripinfo_mixed.46" vType="moped" vaporized=""/>
    <tripinfo id="mixed.43" depart="63.00" departLane="beg_0" departPos="2.20" departSpeed="0.00" departDelay="20.00" arrival="239.00" arrivalLane="end_1" arrivalPos="200.00" arrivalSpeed="11.22" duration="176.00" routeLength="497.80" waitSteps="102" timeLoss="133.37" rerouteNo="0" devices="tripinfo_mixed.43" vType="moped" vaporized=""/>
    <tripinfo id="mixed.40" depart="61.00" departLane="beg_1" departPos="2.20" departSpeed="0.00" departDelay="21.00" arrival="240.00" arrivalLane="end_0" arrivalPos="200.00" arrivalSpeed="13.32" duration="179.00" routeLength="497.80" waitSteps="110" timeLoss="142.66" rerouteNo="0" devices="tripinfo_mixed.40" vType="moped" vaporized=""/>
    <tripinfo id="mixed.12" depart="22.00" departLane="beg_1" departPos="2.20" departSpeed="0.00" departDelay="10.00" arrival="240.00" arrivalLane="end_0" arrivalPos="200.00" arrivalSpeed="9.12" duration="218.00" routeLength="497.80" waitSteps="147" timeLoss="169.23" rerouteNo="0" devices="tripinfo_mixed.12" vType="moped" vaporized=""/>
    <tripinfo id="mixed.16" depart="25.00" departLane="beg_1" departPos="2.20" departSpeed="0.00" departDelay="9.00" arrival="241.00" arrivalLane="end_0" arrivalPos="200.00" arrivalSpeed="7.65" duration="216.00" routeLength="497.80" waitSteps="128" timeLoss="150.96" rerouteNo="0" devices="tripinfo_mixed.16" vType="moped" vaporized=""/>
    <tripinfo id="mixed.28" depart="44.00" departLane="beg_1" departPos="2.20" departSpeed="0.00" departDelay="16.00" arrival="241.00" arrivalLane="end_0" arrivalPos="200.00" arrivalSpeed="8.83" duration="197.00" routeLength="497.80" waitSteps="126" timeLoss="167.02" rerouteNo="0" devices="tripinfo_mixed.28" vType="moped" vaporized=""/>
    <tripinfo id="mixed.47" depart="73.00" departLane="beg_0" departPos="2.20" departSpeed="0.00" departDelay="26.00" arrival="241.00" arrivalLane="end_1" arrivalPos="200.00" arrivalSpeed="12.96" duration="168.00" routeLength="497.80" waitSteps="98" timeLoss="130.93" rerouteNo="0" devices="tripinfo_mixed.47" vType="moped" vaporized=""/>
    <tripinfo id="mixed.30" depart="48.00" departLane="beg_1" departPos="2.20" departSpeed="0.00" departDelay="18.00" arrival="242.00" arrivalLane="end_0" arrivalPos="200.00" arrivalSpeed="9.73" duration="194.00" routeLength="497.80" waitSteps="126" timeLoss="161.86" rerouteNo="0" devices="tripinfo_mixed.30" vType="moped" vaporized=""/>
    <tripinfo id="mixed.44" depart="68.00" departLane="beg_1" departPos="5.10" departSpeed="0.00" departDelay="24.00" arrival="242.00" arrivalLane="end_1" arrivalPos="200.00" arrivalSpeed="14.44" duration="174.00" routeLength="494.90" waitSteps="116" timeLoss="138.88" rerouteNo="0" devices="tripinfo_mixed.44" vType="car" vaporized=""/>
    <tripinfo id="mixed.31" depart="49.00" departLane="beg_0" departPos="2.20" departSpeed="0.00" departDelay="18.00" arrival="243.00" arrivalLane="end_0" arrivalPos="200.00" arrivalSpeed="12.94" duration="194.00" routeLength="497.80" waitSteps="122" timeLoss="163.71" rerouteNo="0" devices="tripinfo_mixed.31" vType="moped" vaporized=""/>
    <tripinfo id="mixed.52" depart="83.00" departLane="beg_1" departPos="5.10" departSpeed="0.00" departDelay="31.00" arrival="243.00" arrivalLane="end_1" arrivalPos="200.00" arrivalSpeed="13.38" duration="160.00" routeLength="494.90" waitSteps="104" timeLoss="125.64" rerouteNo="0" devices="tripinfo_mixed.52" vType="car" vaporized=""/>
    <tripinfo id="mixed.51" depart="80.00" departLane="beg_0" departPos="2.20" departSpeed="0.00" departDelay="29.00" arrival="244.00" arrivalLane="end_0" arrivalPos="200.00" arrivalSpeed="10.63" duration="164.00" routeLength="497.80" waitSteps="96" timeLoss="117.87" rerouteNo="0" devices="tripinfo_mixed.51" vType="moped" vaporized=""/>
    <tripinfo id="mixed.38" depart="59.00" departLane="beg_1" departPos="2.20" departSpeed="0.00" departDelay="21.00" arrival="244.00" arrivalLane="end_0" arrivalPos="200.00" arrivalSpeed="12.98" duration="185.00" routeLength="497.80" waitSteps="110" timeLoss="154.39" rerouteNo="0" devices="tripinfo_mixed.38" vType="moped" vaporized=""/>
    <tripinfo id="mixed.27" depart="42.00" departLane="beg_1" departPos="2.20" departSpeed="0.00" departDelay="15.00" arrival="246.00" arrivalLane="end_0" arrivalPos="200.00" arrivalSpeed="10.12" duration="204.00" routeLength="497.80" waitSteps="135" timeLoss="156.30" rerouteNo="0" devices="tripinfo_mixed.27" vType="moped" vaporized=""/>
    <tripinfo id="mixed.55" depart="88.00" departLane="beg_0" departPos="5.10" departSpeed="0.00" departDelay="33.00" arrival="246.00" arrivalLane="end_1" arrivalPos="200.00" arrivalSpeed="15.23" duration="158.00" routeLength="494.90" waitSteps="101" timeLoss="128.23" rerouteNo="0" devices="tripinfo_mixed.55" vType="car" vaporized=""/>
    <tripinfo id="mixed.58" depart="94.00" departLane="beg_0" departPos="5.10" departSpeed="0.00" departDelay="36.00" arrival="247.00" arrivalLane="end_1" arrivalPos="200.00" arrivalSpeed="13.93" duration="153.00" routeLength="494.90" waitSteps="97" timeLoss="122.39" rerouteNo="0" devices="tripinfo_mixed.58" vType="car" vaporized=""/>
    <tripinfo id="mixed.64" depart="103.00" departLane="beg_0" departPos="5.10" departSpeed="0.00" departDelay="39.00" arrival="249.00" arrivalLane="end_0" arrivalPos="200.00" arrivalSpeed="13.91" duration="146.00" routeLength="494.90" waitSteps="83" timeLoss="110.60" rerouteNo="0" devices="tripinfo_mixed.64" vType="car" vaporized=""/>
    <tripinfo id="mixed.24" depart="39.00" departLane="beg_0" departPos="2.20" departSpeed="0.00" departDelay="15.00" arrival="251.00" arrivalLane="end_1" arrivalPos="200.00" arrivalSpeed="13.46" duration="212.00" routeLength="497.80" waitSteps="138" timeLoss="174.94" rerouteNo="0" devices="tripinfo_mixed.24" vType="moped" vaporized=""/>
    <tripinfo id="mixed.34" depart="54.00" departLane="beg_0" departPos="5.10" departSpeed="0.00" departDelay="20.00" arrival="252.00" arrivalLane="end_1" arrivalPos="200.00" arrivalSpeed="10.54" duration="198.00" routeLength="494.90" waitSteps="119" timeLoss="153.16" rerouteNo="0" devices="tripinfo_mixed.34" vType="car" vaporized=""/>
    <tripinfo id="mixed.48" depart="74.00" departLane="beg_1" departPos="2.20" departSpeed="0.00" departDelay="26.00" arrival="253.00" arrivalLane="end_1" arrivalPos="200.00" arrivalSpeed="13.03" duration="179.00" routeLength="497.80" waitSteps="102" timeLoss="140.55" rerouteNo="0" devices="tripinfo_mixed.48" vType="moped" vaporized=""/>
    <tripinfo id="mixed.45" depart="71.00" departLane="beg_0" departPos="5.10" departSpeed="0.00" departDelay="26.00" arrival="254.00" arrivalLane="end_1" arrivalPos="200.00" arrivalSpeed="13.65" duration="183.00" routeLength="494.90" waitSteps="108" timeLoss="146.34" rerouteNo="0" devices="tripinfo_mixed.45" vType="car" vaporized=""/>
    <tripinfo id="mixed.36" depart="56.00" departLane="beg_0" departPos="2.20" departSpeed="0.00" departDelay="20.00" arrival="255.00" arrivalLane="end_0" arrivalPos="200.00" arrivalSpeed="6.66" duration="199.00" routeLength="497.80" waitSteps="106" timeLoss="127.68" rerouteNo="0" devices="tripinfo_mixed.36" vType="moped" vaporized=""/>
    <tripinfo id="mixed.71" depart="114.00" departLane="beg_0" departPos="5.10" departSpeed="0.00" departDelay="43.00" arrival="255.00" arrivalLane="end_1" arrivalPos="200.00" arrivalSpeed="15.97" duration="141.00" routeLength="494.90" waitSteps="74" timeLoss="113.03" rerouteNo="0" devices="tripinfo_mixed.71" vType="car" vaporized=""/>
    <tripinfo id="mixed.54" depart="87.00" departLane="beg_1" departPos="5.10" departSpeed="0.00" departDelay="33.00" arrival="257.00" arrivalLane="end_0" arrivalPos="200.00" arrivalSpeed="11.32" duration="170.00" routeLength="494.90" waitSteps="101" timeLoss="137.17" rerouteNo="0" devices="tripinfo_mixed.54" vType="car" vaporized=""/>
    <tripinfo id="mixed.1" depart="1.00" departLane="beg_1" departPos="2.20" departSpeed="0.00" departDelay="0.00" arrival="258.00" arrivalLane="end_0" arrivalPos="200.00" arrivalSpeed="4.88" duration="257.00" routeLength="497.80" waitSteps="144" timeLoss="155.61" rerouteNo="0" devices="tripinfo_mixed.1" vType="moped" vaporized=""/>
    <tripinfo id="mixed.75" depart="120.00" departLane="beg_1" departPos="5.10" departSpeed="0.00" departDelay="45.00" arrival="258.00" arrivalLane="end_1" arrivalPos="200.00" arrivalSpeed="11.41" duration="138.00" routeLength="494.90" waitSteps="74" timeLoss="97.41" rerouteNo="0" devices="tripinfo_mixed.75" vType="car" vaporized=""/>
    <tripinfo id="mixed.56" depart="91.00" departLane="beg_1" departPos="5.10" departSpeed="0.00" departDelay="35.00" arrival="259.00" arrivalLane="end_0" arrivalPos="200.00" arrivalSpeed="11.78" duration="168.00" routeLength="494.90" waitSteps="100" timeLoss="133.64" rerouteNo="0" devices="tripinfo_mixed.56" vType="car" vaporized=""/>
    <tripinfo id="mixed.79" depart="126.00" departLane="beg_1" departPos="5.10" departSpeed="0.00" departDelay="47.00" arrival="259.00" arrivalLane="end_1" arrivalPos="200.00" arrivalSpeed="13.04" duration="133.00" routeLength="494.90" waitSteps="68" timeLoss="95.46" rerouteNo="0" devices="tripinfo_mixed.79" vType="car" vaporized=""/>
    <tripinfo id="mixed.57" depart="92.00" departLane="beg_1" departPos="2.20" departSpeed="0.00" departDelay="35.00" arrival="261.00" arrivalLane="end_0" arrivalPos="200.00" arrivalSpeed="8.90" duration="169.00" routeLength="497.80" waitSteps="90" timeLoss="115.17" rerouteNo="0" devices="tripinfo_mixed.57" vType="moped" vaporized=""/>
    <tripinfo id="mixed.42" depart="63.00" departLane="beg_0" departPos="2.20" departSpeed="0.00" departDelay="21.00" arrival="261.00" arrivalLane="end_0" arrivalPos="200.00" arrivalSpeed="7.79" duration="198.00" routeLength="497.80" waitSteps="106" timeLoss="137.38" rerouteNo="0" devices="tripinfo_mixed.42" vType="moped" vaporized=""/>
    <tripinfo id="mixed.84" depart="135.00" departLane="beg_1" departPos="5.10" departSpeed="0.00" departDelay="51.00" arrival="261.00" arrivalLane="end_1" arrivalPos="200.00" arrivalSpeed="14.83" duration="126.00" routeLength="494.90" waitSteps="63" timeLoss="95.59" rerouteNo="0" devices="tripinfo_mixed.84" vType="car" vaporized=""/>
    <tripinfo id="mixed.67" depart="106.00" departLane="beg_0" departPos="2.20" departSpeed="0.00" departDelay="39.00" arrival="262.00" arrivalLane="end_0" arrivalPos="200.00" arrivalSpeed="10.56" duration="156.00" routeLength="497.80" waitSteps="80" timeLoss="125.96" rerouteNo="0" devices="tripinfo_mixed.67" vType="moped" vaporized=""/>
    <tripinfo id="mixed.96" depart="156.00" departLane="beg_1" departPos="5.10" departSpeed="0.00" departDelay="60.00" arrival="263.00" arrivalLane="end_1" arrivalPos="200.00" arrivalSpeed="16.75" duration="107.00" routeLength="494.90" waitSteps="48" timeLoss="77.30" rerouteNo="0" devices="tripinfo_mixed.96" vType="car" vaporized=""/>
    <tripinfo id="mixed.60" depart="99.00" departLane="beg_1" departPos="5.10" departSpeed="0.00" departDelay="39.00" arrival="263.00" arrivalLane="end_1" arrivalPos="200.00" arrivalSpeed="11.78" duration="164.00" routeLength="494.90" waitSteps="94" timeLoss="128.91" rerouteNo="0" devices="tripinfo_mixed.60" vType="car" vaporized=""/>
    <tripinfo id="mixed.62" depart="99.00" departLane="beg_0" departPos="2.20" departSpeed="0.00" departDelay="37.00" arrival="264.00" arrivalLane="end_0" arrivalPos="200.00" arrivalSpeed="11.06" duration="165.00" routeLength="497.80" waitSteps="86" timeLoss="124.71" rerouteNo="0" devices="tripinfo_mixed.62" vType="moped" vaporized=""/>
    <tripinfo id="mixed.2" depart="2.00" departLane="beg_0" departPos="2.20" departSpeed="0.00" departDelay="0.00" arrival="265.00" arrivalLane="end_0" arrivalPos="200.00" arrivalSpeed="4.02" duration="263.00" routeLength="497.80" waitSteps="138" timeLoss="151.95" rerouteNo="0" devices="tripinfo_mixed.2" vType="moped" vaporized=""/>
    <tripinfo id="mixed.94" depart="152.00" departLane="beg_1" departPos="2.20" departSpeed="0.00" departDelay="58.00" arrival="265.00" arrivalLane="end_1" arrivalPos="200.00" arrivalSpeed="15.42" duration="113.00" routeLength="497.80" waitSteps="51" timeLoss="80.38" rerouteNo="0" devices="tripinfo_mixed.94" vType="moped" vaporized=""/>
    <tripinfo id="mixed.70" depart="112.00" departLane="beg_1" departPos="5.10" departSpeed="0.00" departDelay="42.00" arrival="265.00" arrivalLane="end_1" arrivalPos="200.00" arrivalSpeed="10.51" duration="153.00" routeLength="494.90" waitSteps="82" timeLoss="108.38" rerouteNo="0" devices="tripinfo_mixed.70" vType="car" vaporized=""/>
    <tripinfo id="mixed.78" depart="123.00" departLane="beg_1" departPos="5.10" departSpeed="0.00" departDelay="45.00" arrival="266.00" arrivalLane="end_0" arrivalPos="200.00" arrivalSpeed="13.23" duration="143.00" routeLength="494.90" waitSteps="74" timeLoss="109.45" rerouteNo="0" devices="tripinfo_mixed.78" vType="car" vaporized=""/>
    <tripinfo id="mixed.97" depart="156.00" departLane="beg_0" departPos="2.20" departSpeed="0.00" departDelay="59.00" arrival="266.00" arrivalLane="end_1" arrivalPos="200.00" arrivalSpeed="16.38" duration="110.00" routeLength="497.80" waitSteps="47" timeLoss="79.73" rerouteNo="0" devices="tripinfo_mixed.97" vType="moped" vaporized=""/>
    <tripinfo id="mixed.86" depart="139.00" departLane="beg_1" departPos="2.20" departSpeed="0.00" departDelay="53.00" arrival="267.00" arrivalLane="end_0" arrivalPos="200.00" arrivalSpeed="11.74" duration="128.00" routeLength="497.80" waitSteps="59" timeLoss="97.44" rerouteNo="0" devices="tripinfo_mixed.86" vType="moped" vaporized=""/>
    <tripinfo id="mixed.81" depart="129.00" departLane="beg_1" departPos="5.10" departSpeed="0.00" departDelay="48.00" arrival="268.00" arrivalLane="end_0" arrivalPos="200.00" arrivalSpeed="13.32" duration="139.00" routeLength="494.90" waitSteps="72" timeLoss="113.37" rerouteNo="0" devices="tripinfo_mixed.81" vType="car" vaporized=""/>
    <tripinfo id="mixed.53" depart="83.00" departLane="beg_0" departPos="2.20" departSpeed="0.00" departDelay="30.00" arrival="268.00" arrivalLane="end_1" arrivalPos="200.00" arrivalSpeed="9.63" duration="185.00" routeLength="497.80" waitSteps="89" timeLoss="134.31" rerouteNo="0" devices="tripinfo_mixed.53" vType="moped" vaporized=""/>
    <tripinfo id="mixed.92" depart="150.00" departLane="beg_1" departPos="5.10" departSpeed="0.00" departDelay="58.00" arrival="269.00" arrivalLane="end_1" arrivalPos="200.00" arrivalSpeed="14.30" duration="119.00" routeLength="494.90" waitSteps="57" timeLoss="84.45" rerouteNo="0" devices="tripinfo_mixed.92" vType="car" vaporized=""/>
    <tripinfo id="mixed.88" depart="140.00" departLane="beg_1" departPos="5.10" departSpeed="0.00" departDelay="52.00" arrival="270.00" arrivalLane="end_0" arrivalPos="200.00" arrivalSpeed="12.54" duration="130.00" routeLength="494.90" waitSteps="62" timeLoss="93.42" rerouteNo="0" devices="tripinfo_mixed.88" vType="car" vaporized=""/>
    <tripinfo id="mixed.91" depart="145.00" departLane="beg_1" departPos="2.20" departSpeed="0.00" departDelay="54.00" arrival="272.00" arrivalLane="end_0" arrivalPos="200.00" arrivalSpeed="12.83" duration="127.00" routeLength="497.80" waitSteps="57" timeLoss="94.70" rerouteNo="0" devices="tripinfo_mixed.91" vType="moped" vaporized=""/>
    <tripinfo id="mixed.29" depart="46.00" departLane="beg_0" departPos="2.20" departSpeed="0.00" departDelay="17.00" arrival="273.00" arrivalLane="end_0" arrivalPos="200.00" arrivalSpeed="4.35" duration="227.00" routeLength="497.80" waitSteps="106" timeLoss="120.54" rerouteNo="0" devices="tripinfo_mixed.29" vType="moped" vaporized=""/>
    <tripinfo id="mixed.73" depart="117.00" departLane="beg_1" departPos="2.20" departSpeed="0.00" departDelay="44.00" arrival="273.00" arrivalLane="end_0" arrivalPos="200.00" arrivalSpeed="13.27" duration="156.00" routeLength="497.80" waitSteps="77" timeLoss="125.85" rerouteNo="0" devices="tripinfo_mixed.73" vType="moped" vaporized=""/>
    <tripinfo id="mixed.49" depart="77.00" departLane="beg_1" departPos="2.20" departSpeed="0.00" departDelay="28.00" arrival="274.00" arrivalLane="end_0" arrivalPos="200.00" arrivalSpeed="5.76" duration="197.00" routeLength="497.80" waitSteps="105" timeLoss="154.07" rerouteNo="0" devices="tripinfo_mixed.49" vType="moped" vaporized=""/>
    <tripinfo id="mixed.69" depart="111.00" departLane="beg_0" departPos="5.10" departSpeed="0.00" departDelay="42.00" arrival="274.00" arrivalLane="end_1" arrivalPos="200.00" arrivalSpeed="9.45" duration="163.00" routeLength="494.90" waitSteps="74" timeLoss="112.78" rerouteNo="0" devices="tripinfo_mixed.69" vType="car" vaporized=""/>
    <tripinfo id="mixed.77" depart="122.00" departLane="beg_0" departPos="2.20" departSpeed="0.00" departDelay="45.00" arrival="275.00" arrivalLane="end_0" arrivalPos="200.00" arrivalSpeed="14.23" duration="153.00" routeLength="497.80" waitSteps="76" timeLoss="122.29" rerouteNo="0" devices="tripinfo_mixed.77" vType="moped" vaporized=""/>
    <tripinfo id="mixed.98" depart="159.00" departLane="beg_1" departPos="5.10" departSpeed="0.00" departDelay="61.00" arrival="275.00" arrivalLane="end_1" arrivalPos="200.00" arrivalSpeed="11.71" duration="116.00" routeLength="494.90" waitSteps="45" timeLoss="82.44" rerouteNo="0" devices="tripinfo_mixed.98" vType="car" vaporized=""/>
    <tripinfo id="mixed.50" depart="77.00" departLane="beg_0" departPos="2.20" departSpeed="0.00" departDelay="27.00" arrival="276.00" arrivalLane="end_0" arrivalPos="200.00" arrivalSpeed="6.48" duration="199.00" routeLength="497.80" waitSteps="95" timeLoss="141.47" rerouteNo="0" devices="tripinfo_mixed.50" vType="moped" vaporized=""/>
    <tripinfo id="mixed.68" depart="108.00" departLane="beg_1" departPos="2.20" departSpeed="0.00" departDelay="40.00" arrival="276.00" arrivalLane="end_0" arrivalPos="200.00" arrivalSpeed="13.87" duration="168.00" routeLength="497.80" waitSteps="74" timeLoss="137.62" rerouteNo="0" devices="tripinfo_mixed.68" vType="moped" vaporized=""/>
    <tripinfo id="mixed.59" depart="95.00" departLane="beg_1" departPos="2.20" departSpeed="0.00" departDelay="36.00" arrival="276.00" arrivalLane="end_1" arrivalPos="200.00" arrivalSpeed="7.81" duration="181.00" routeLength="497.80" waitSteps="83" timeLoss="119.31" rerouteNo="0" devices="tripinfo_mixed.59" vType="moped" vaporized=""/>
    <tripinfo id="mixed.89" depart="142.00" departLane="beg_1" departPos="2.20" departSpeed="0.00" departDelay="53.00" arrival="277.00" arrivalLane="end_0" arrivalPos="200.00" arrivalSpeed="11.46" duration="135.00" routeLength="497.80" waitSteps="60" timeLoss="95.16" rerouteNo="0" devices="tripinfo_mixed.89" vType="moped" vaporized=""/>
    <tripinfo id="mixed.76" depart="121.00" departLane="beg_0" departPos="2.20" departSpeed="0.00" departDelay="45.00" arrival="277.00" arrivalLane="end_0" arrivalPos="200.00" arrivalSpeed="13.89" duration="156.00" routeLength="497.80" waitSteps="72" timeLoss="125.92" rerouteNo="0" devices="tripinfo_mixed.76" vType="moped" vaporized=""/>
    <tripinfo id="mixed.63" depart="99.00" departLane="beg_0" departPos="2.20" departSpeed="0.00" departDelay="36.00" arrival="278.00" arrivalLane="end_0" arrivalPos="200.00" arrivalSpeed="7.60" duration="179.00" routeLength="497.80" waitSteps="84" timeLoss="139.49" rerouteNo="0" devices="tripinfo_mixed.63" vType="moped" vaporized=""/>
    <tripinfo id="mixed.95" depart="153.00" departLane="beg_1" departPos="5.10" departSpeed="0.00" departDelay="58.00" arrival="278.00" arrivalLane="end_1" arrivalPos="200.00" arrivalSpeed="10.89" duration="125.00" routeLength="494.90" waitSteps="58" timeLoss="88.81" rerouteNo="0" devices="tripinfo_mixed.95" vType="car" vaporized=""/>