<?xml version="1.0" encoding="UTF-8"?>

<!-- generated on Thu Dec 17 10:31:12 2015 by SUMO Version dev-SVN-r19615
<?xml version="1.0" encoding="UTF-8"?>

<configuration xmlns:xsi="http://www.w3.org/2001/XMLSchema-instance" xsi:noNamespaceSchemaLocation="http://sumo.dlr.de/xsd/sumoConfiguration.xsd">

    <input>
        <net-file value="net.net.xml"/>
        <route-files value="input_routes.rou.xml"/>
    </input>

    <output>
        <tripinfo-output value="tripinfos.xml"/>
    </output>

    <processing>
        <lateral-resolution value="0.64"/>
    </processing>

    <report>
        <xml-validation value="never"/>
        <no-step-log value="true"/>
    </report>

</configuration>
-->

<tripinfos xmlns:xsi="http://www.w3.org/2001/XMLSchema-instance" xsi:noNamespaceSchemaLocation="http://sumo.dlr.de/xsd/tripinfo_file.xsd">
    <tripinfo id="mixed.11" depart="20.00" departLane="beg_1" departPos="5.10" departSpeed="0.00" departDelay="9.00" arrival="217.00" arrivalLane="end_0" arrivalPos="200.00" arrivalSpeed="14.50" duration="197.00" routeLength="494.90" waitSteps="147" timeLoss="163.75" rerouteNo="0" devices="tripinfo_mixed.11" vType="car" vaporized=""/>
    <tripinfo id="mixed.5" depart="7.00" departLane="beg_1" departPos="5.10" departSpeed="0.00" departDelay="2.00" arrival="217.00" arrivalLane="end_0" arrivalPos="200.00" arrivalSpeed="14.15" duration="210.00" routeLength="494.90" waitSteps="164" timeLoss="175.06" rerouteNo="0" devices="tripinfo_mixed.5" vType="car" vaporized=""/>
    <tripinfo id="mixed.8" depart="13.00" departLane="beg_1" departPos="5.10" departSpeed="0.00" departDelay="5.00" arrival="219.00" arrivalLane="end_0" arrivalPos="200.00" arrivalSpeed="16.16" duration="206.00" routeLength="494.90" waitSteps="163" timeLoss="176.77" rerouteNo="0" devices="tripinfo_mixed.8" vType="car" vaporized=""/>
    <tripinfo id="mixed.6" depart="8.00" departLane="beg_0" departPos="2.20" departSpeed="0.00" departDelay="2.00" arrival="221.00" arrivalLane="end_0" arrivalPos="200.00" arrivalSpeed="16.40" duration="213.00" routeLength="497.80" waitSteps="158" timeLoss="182.25" rerouteNo="0" devices="tripinfo_mixed.6" vType="moped" vaporized=""/>
    <tripinfo id="mixed.13" depart="22.00" departLane="beg_0" departPos="2.20" departSpeed="0.00" departDelay="9.00" arrival="222.00" arrivalLane="end_1" arrivalPos="200.00" arrivalSpeed="16.40" duration="200.00" routeLength="497.80" waitSteps="136" timeLoss="169.88" rerouteNo="0" devices="tripinfo_mixed.13" vType="moped" vaporized=""/>
    <tripinfo id="mixed.17" depart="27.00" departLane="beg_1" departPos="5.10" departSpeed="0.00" departDelay="10.00" arrival="223.00" arrivalLane="end_1" arrivalPos="200.00" arrivalSpeed="14.05" duration="196.00" routeLength="494.90" waitSteps="145" timeLoss="160.82" rerouteNo="0" devices="tripinfo_mixed.17" vType="car" vaporized=""/>
    <tripinfo id="mixed.0" depart="0.00" departLane="beg_0" departPos="2.20" departSpeed="0.00" departDelay="0.00" arrival="225.00" arrivalLane="end_0" arrivalPos="200.00" arrivalSpeed="10.09" duration="225.00" routeLength="497.80" waitSteps="164" timeLoss="176.84" rerouteNo="0" devices="tripinfo_mixed.0" vType="moped" vaporized=""/>
    <tripinfo id="mixed.9" depart="16.00" departLane="beg_1" departPos="5.10" departSpeed="0.00" departDelay="7.00" arrival="225.00" arrivalLane="end_0" arrivalPos="200.00" arrivalSpeed="9.97" duration="209.00" routeLength="494.90" waitSteps="154" timeLoss="164.04" rerouteNo="0" devices="tripinfo_mixed.9" vType="car" vaporized=""/>
    <tripinfo id="mixed.3" depart="4.00" departLane="beg_1" departPos="2.20" departSpeed="0.00" departDelay="1.00" arrival="226.00" arrivalLane="end_0" arrivalPos="200.00" arrivalSpeed="10.95" duration="222.00" routeLength="497.80" waitSteps="162" timeLoss="185.36" rerouteNo="0" devices="tripinfo_mixed.3" vType="moped" vaporized=""/>
    <tripinfo id="mixed.19" depart="30.00" departLane="beg_0" departPos="5.10" departSpeed="0.00" departDelay="11.00" arrival="227.00" arrivalLane="end_0" arrivalPos="200.00" arrivalSpeed="13.91" duration="197.00" routeLength="494.90" waitSteps="137" timeLoss="162.76" rerouteNo="0" devices="tripinfo_mixed.19" vType="car" vaporized=""/>
    <tripinfo id="mixed.15" depart="25.00" departLane="beg_0" departPos="2.20" departSpeed="0.00" departDelay="10.00" arrival="228.00" arrivalLane="end_0" arrivalPos="200.00" arrivalSpeed="12.28" duration="203.00" routeLength="497.80" waitSteps="143" timeLoss="170.81" rerouteNo="0" devices="tripinfo_mixed.15" vType="moped" vaporized=""/>
    <tripinfo id="mixed.12" depart="22.00" departLane="beg_1" departPos="2.20" departSpeed="0.00" departDelay="10.00" arrival="230.00" arrivalLane="end_0" arrivalPos="200.00" arrivalSpeed="9.96" duration="208.00" routeLength="497.80" waitSteps="145" timeLoss="159.24" rerouteNo="0" devices="tripinfo_mixed.12" vType="moped" vaporized=""/>
    <tripinfo id="mixed.14" depart="22.00" departLane="beg_0" departPos="2.20" departSpeed="0.00" departDelay="8.00" arrival="230.00" arrivalLane="end_0" arrivalPos="200.00" arrivalSpeed="14.06" duration="208.00" routeLength="497.80" waitSteps="145" timeLoss="172.96" rerouteNo="0" devices="tripinfo_mixed.14" vType="moped" vaporized=""/>
    <tripinfo id="mixed.18" depart="30.00" departLane="beg_1" departPos="5.10" departSpeed="0.00" departDelay="12.00" arrival="231.00" arrivalLane="end_1" arrivalPos="200.00" arrivalSpeed="9.35" duration="201.00" routeLength="494.90" waitSteps="137" timeLoss="152.92" rerouteNo="0" devices="tripinfo_mixed.18" vType="car" vaporized=""/>
    <tripinfo id="mixed.20" depart="33.00" departLane="beg_0" departPos="5.10" departSpeed="0.00" departDelay="13.00" arrival="233.00" arrivalLane="end_1" arrivalPos="200.00" arrivalSpeed="13.19" duration="200.00" routeLength="494.90" waitSteps="133" timeLoss="171.36" rerouteNo="0" devices="tripinfo_mixed.20" vType="car" vaporized=""/>
    <tripinfo id="mixed.21" depart="33.00" departLane="beg_1" departPos="5.10" departSpeed="0.00" departDelay="12.00" arrival="234.00" arrivalLane="end_0" arrivalPos="200.00" arrivalSpeed="10.32" duration="201.00" routeLength="494.90" waitSteps="141" timeLoss="155.28" rerouteNo="0" devices="tripinfo_mixed.21" vType="car" vaporized=""/>
    <tripinfo id="mixed.4" depart="4.00" departLane="beg_0" departPos="2.20" departSpeed="0.00" departDelay="0.00" arrival="235.00" arrivalLane="end_0" arrivalPos="200.00" arrivalSpeed="7.33" duration="231.00" routeLength="497.80" waitSteps="149" timeLoss="164.68" rerouteNo="0" devices="tripinfo_mixed.4" vType="moped" vaporized=""/>
    <tripinfo id="mixed.7" depart="11.00" departLane="beg_1" departPos="2.20" departSpeed="0.00" departDelay="4.00" arrival="235.00" arrivalLane="end_1" arrivalPos="200.00" arrivalSpeed="9.22" duration="224.00" routeLength="497.80" waitSteps="149" timeLoss="171.47" rerouteNo="0" devices="tripinfo_mixed.7" vType="moped" vaporized=""/>
    <tripinfo id="mixed.25" depart="39.00" departLane="beg_1" departPos="5.10" departSpeed="0.00" departDelay="14.00" arrival="235.00" arrivalLane="end_1" arrivalPos="200.00" arrivalSpeed="12.62" duration="196.00" routeLength="494.90" waitSteps="133" timeLoss="157.29" rerouteNo="0" devices="tripinfo_mixed.25" vType="car" vaporized=""/>
    <tripinfo id="mixed.24" depart="35.00" departLane="beg_1" departPos="2.20" departSpeed="0.00" departDelay="11.00" arrival="236.00" arrivalLane="end_0" arrivalPos="200.00" arrivalSpeed="13.40" duration="201.00" routeLength="497.80" waitSteps="134" timeLoss="163.47" rerouteNo="0" devices="tripinfo_mixed.24" vType="moped" vaporized=""/>
    <tripinfo id="mixed.10" depart="16.00" departLane="beg_0" departPos="2.20" departSpeed="0.00" departDelay="6.00" arrival="237.00" arrivalLane="end_0" arrivalPos="200.00" arrivalSpeed="8.98" duration="221.00" routeLength="497.80" waitSteps="145" timeLoss="169.51" rerouteNo="0" devices="tripinfo_mixed.10" vType="moped" vaporized=""/>
    <tripinfo id="mixed.40" depart="59.00" departLane="beg_1" departPos="2.20" departSpeed="0.00" departDelay="19.00" arrival="237.00" arrivalLane="end_0" arrivalPos="200.00" arrivalSpeed="13.89" duration="178.00" routeLength="497.80" waitSteps="120" timeLoss="141.93" rerouteNo="0" devices="tripinfo_mixed.40" vType="moped" vaporized=""/>
    <tripinfo id="mixed.32" depart="51.00" departLane="beg_0" departPos="5.10" departSpeed="0.00" departDelay="19.00" arrival="237.00" arrivalLane="end_1" arrivalPos="200.00" arrivalSpeed="13.81" duration="186.00" routeLength="494.90" waitSteps="130" timeLoss="152.07" rerouteNo="0" devices="tripinfo_mixed.32" vType="car" vaporized=""/>
    <tripinfo id="mixed.22" depart="35.00" departLane="beg_0" departPos="2.20" departSpeed="0.00" departDelay="13.00" arrival="238.00" arrivalLane="end_0" arrivalPos="200.00" arrivalSpeed="8.42" duration="203.00" routeLength="497.80" waitSteps="140" timeLoss="172.99" rerouteNo="0" devices="tripinfo_mixed.22" vType="moped" vaporized=""/>
    <tripinfo id="mixed.30" depart="47.00" departLane="beg_0" departPos="2.20" departSpeed="0.00" departDelay="17.00" arrival="238.00" arrivalLane="end_0" arrivalPos="200.00" arrivalSpeed="14.07" duration="191.00" routeLength="497.80" waitSteps="130" timeLoss="158.76" rerouteNo="0" devices="tripinfo_mixed.30" vType="moped" vaporized=""/>
    <tripinfo id="mixed.43" depart="63.00" departLane="beg_1" departPos="2.20" departSpeed="0.00" departDelay="20.00" arrival="239.00" arrivalLane="end_0" arrivalPos="200.00" arrivalSpeed="11.62" duration="176.00" routeLength="497.80" waitSteps="116" timeLoss="132.74" rerouteNo="0" devices="tripinfo_mixed.43" vType="moped" vaporized=""/>
    <tripinfo id="mixed.47" depart="69.00" departLane="beg_0" departPos="2.20" departSpeed="0.00" departDelay="22.00" arrival="239.00" arrivalLane="end_1" arrivalPos="200.00" arrivalSpeed="13.30" duration="170.00" routeLength="497.80" waitSteps="109" timeLoss="133.37" rerouteNo="0" devices="tripinfo_mixed.47" vType="moped" vaporized=""/>
    <tripinfo id="mixed.23" depart="35.00" departLane="beg_0" departPos="2.20" departSpeed="0.00" departDelay="12.00" arrival="240.00" arrivalLane="end_0" arrivalPos="200.00" arrivalSpeed="8.86" duration="205.00" routeLength="497.80" waitSteps="139" timeLoss="174.68" rerouteNo="0" devices="tripinfo_mixed.23" vType="moped" vaporized=""/>
    <tripinfo id="mixed.35" depart="54.00" departLane="beg_1" departPos="2.20" departSpeed="0.00" departDelay="19.00" arrival="241.00" arrivalLane="end_0" arrivalPos="200.00" arrivalSpeed="12.49" duration="187.00" routeLength="497.80" waitSteps="125" timeLoss="153.06" rerouteNo="0" devices="tripinfo_mixed.35" vType="moped" vaporized=""/>
    <tripinfo id="mixed.38" depart="58.00" departLane="beg_1" departPos="2.20" departSpeed="0.00" departDelay="20.00" arrival="241.00" arrivalLane="end_0" arrivalPos="200.00" arrivalSpeed="14.30" duration="183.00" routeLength="497.80" waitSteps="124" timeLoss="152.66" rerouteNo="0" devices="tripinfo_mixed.38" vType="moped" vaporized=""/>
    <tripinfo id="mixed.31" depart="48.00" departLane="beg_1" departPos="2.20" departSpeed="0.00" departDelay="17.00" arrival="242.00" arrivalLane="end_0" arrivalPos="200.00" arrivalSpeed="14.12" duration="194.00" routeLength="497.80" waitSteps="131" timeLoss="164.07" rerouteNo="0" devices="tripinfo_mixed.31" vType="moped" vaporized=""/>
    <tripinfo id="mixed.45" depart="67.00" departLane="beg_1" departPos="5.10" departSpeed="0.00" departDelay="22.00" arrival="243.00" arrivalLane="end_1" arrivalPos="200.00" arrivalSpeed="13.41" duration="176.00" routeLength="494.90" waitSteps="115" timeLoss="139.45" rerouteNo="0" devices="tripinfo_mixed.45" vType="car" vaporized=""/>
    <tripinfo id="mixed.41" depart="62.00" departLane="beg_0" departPos="2.20" departSpeed="0.00" departDelay="21.00" arrival="244.00" arrivalLane="end_0" arrivalPos="200.00" arrivalSpeed="15.15" duration="182.00" routeLength="497.80" waitSteps="118" timeLoss="151.39" rerouteNo="0" devices="tripinfo_mixed.41" vType="moped" vaporized=""/>
    <tripinfo id="mixed.16" depart="25.00" departLane="beg_1" departPos="2.20" departSpeed="0.00" departDelay="9.00" arrival="245.00" arrivalLane="end_0" arrivalPos="200.00" arrivalSpeed="7.22" duration="220.00" routeLength="497.80" waitSteps="134" timeLoss="155.60" rerouteNo="0" devices="tripinfo_mixed.16" vType="moped" vaporized=""/>
    <tripinfo id="mixed.52" depart="74.00" departLane="beg_0" departPos="5.10" departSpeed="0.00" departDelay="22.00" arrival="245.00" arrivalLane="end_1" arrivalPos="200.00" arrivalSpeed="14.14" duration="171.00" routeLength="494.90" waitSteps="101" timeLoss="135.87" rerouteNo="0" devices="tripinfo_mixed.52" vType="car" vaporized=""/>
    <tripinfo id="mixed.44" depart="64.00" departLane="beg_1" departPos="5.10" departSpeed="0.00" departDelay="20.00" arrival="247.00" arrivalLane="end_1" arrivalPos="200.00" arrivalSpeed="11.97" duration="183.00" routeLength="494.90" waitSteps="116" timeLoss="148.30" rerouteNo="0" devices="tripinfo_mixed.44" vType="car" vaporized=""/>
    <tripinfo id="mixed.46" depart="68.00" departLane="beg_1" departPos="2.20" departSpeed="0.00" departDelay="22.00" arrival="249.00" arrivalLane="end_0" arrivalPos="200.00" arrivalSpeed="10.98" duration="181.00" routeLength="497.80" waitSteps="113" timeLoss="150.53" rerouteNo="0" devices="tripinfo_mixed.46" vType="moped" vaporized=""/>
    <tripinfo id="mixed.50" depart="71.00" departLane="beg_1" departPos="2.20" departSpeed="0.00" departDelay="21.00" arrival="251.00" arrivalLane="end_0" arrivalPos="200.00" arrivalSpeed="8.63" duration="180.00" routeLength="497.80" waitSteps="109" timeLoss="122.59" rerouteNo="0" devices="tripinfo_mixed.50" vType="moped" vaporized=""/>
    <tripinfo id="mixed.54" depart="78.00" departLane="beg_1" departPos="5.10" departSpeed="0.00" departDelay="24.00" arrival="251.00" arrivalLane="end_1" arrivalPos="200.00" arrivalSpeed="14.46" duration="173.00" routeLength="494.90" waitSteps="109" timeLoss="139.90" rerouteNo="0" devices="tripinfo_mixed.54" vType="car" vaporized=""/>
    <tripinfo id="mixed.57" depart="84.00" departLane="beg_0" departPos="2.20" departSpeed="0.00" departDelay="27.00" arrival="251.00" arrivalLane="end_1" arrivalPos="200.00" arrivalSpeed="9.14" duration="167.00" routeLength="497.80" waitSteps="86" timeLoss="113.52" rerouteNo="0" devices="tripinfo_mixed.57" vType="moped" vaporized=""/>
    <tripinfo id="mixed.26" depart="41.00" departLane="beg_1" departPos="2.20" departSpeed="0.00" departDelay="15.00" arrival="253.00" arrivalLane="end_0" arrivalPos="200.00" arrivalSpeed="12.62" duration="212.00" routeLength="497.80" waitSteps="136" timeLoss="178.01" rerouteNo="0" devices="tripinfo_mixed.26" vType="moped" vaporized=""/>
    <tripinfo id="mixed.53" depart="78.00" departLane="beg_0" departPos="2.20" departSpeed="0.00" departDelay="25.00" arrival="253.00" arrivalLane="end_0" arrivalPos="200.00" arrivalSpeed="9.78" duration="175.00" routeLength="497.80" waitSteps="95" timeLoss="123.92" rerouteNo="0" devices="tripinfo_mixed.53" vType="moped" vaporized=""/>
    <tripinfo id="mixed.67" depart="102.00" departLane="beg_1" departPos="2.20" departSpeed="0.00" departDelay="35.00" arrival="253.00" arrivalLane="end_1" arrivalPos="200.00" arrivalSpeed="10.71" duration="151.00" routeLength="497.80" waitSteps="83" timeLoss="120.55" rerouteNo="0" devices="tripinfo_mixed.67" vType="moped" vaporized=""/>
    <tripinfo id="mixed.63" depart="95.00" departLane="beg_0" departPos="2.20" departSpeed="0.00" departDelay="32.00" arrival="253.00" arrivalLane="end_1" arrivalPos="200.00" arrivalSpeed="11.80" duration="158.00" routeLength="497.80" waitSteps="84" timeLoss="118.22" rerouteNo="0" devices="tripinfo_mixed.63" vType="moped" vaporized=""/>
    <tripinfo id="mixed.28" depart="43.00" departLane="beg_1" departPos="2.20" departSpeed="0.00" departDelay="15.00" arrival="254.00" arrivalLane="end_0" arrivalPos="200.00" arrivalSpeed="12.56" duration="211.00" routeLength="497.80" waitSteps="137" timeLoss="180.65" rerouteNo="0" devices="tripinfo_mixed.28" vType="moped" vaporized=""/>
    <tripinfo id="mixed.65" depart="99.00" departLane="beg_0" departPos="2.20" departSpeed="0.00" departDelay="34.00" arrival="254.00" arrivalLane="end_1" arrivalPos="200.00" arrivalSpeed="10.61" duration="155.00" routeLength="497.80" waitSteps="77" timeLoss="108.19" rerouteNo="0" devices="tripinfo_mixed.65" vType="moped" vaporized=""/>
    <tripinfo id="mixed.1" depart="1.00" departLane="beg_1" departPos="2.20" departSpeed="0.00" departDelay="0.00" arrival="256.00" arrivalLane="end_0" arrivalPos="200.00" arrivalSpeed="4.68" duration="255.00" routeLength="497.80" waitSteps="142" timeLoss="154.11" rerouteNo="0" devices="tripinfo_mixed.1" vType="moped" vaporized=""/>
    <tripinfo id="mixed.71" depart="109.00" departLane="beg_0" departPos="5.10" departSpeed="0.00" departDelay="38.00" arrival="256.00" arrivalLane="end_0" arrivalPos="200.00" arrivalSpeed="14.56" duration="147.00" routeLength="494.90" waitSteps="76" timeLoss="118.68" rerouteNo="0" devices="tripinfo_mixed.71" vType="car" vaporized=""/>
    <tripinfo id="mixed.81" depart="123.00" departLane="beg_1" departPos="5.10" departSpeed="0.00" departDelay="42.00" arrival="257.00" arrivalLane="end_1" arrivalPos="200.00" arrivalSpeed="17.58" duration="134.00" routeLength="494.90" waitSteps="74" timeLoss="107.88" rerouteNo="0" devices="tripinfo_mixed.81" vType="car" vaporized=""/>
    <tripinfo id="mixed.75" depart="113.00" departLane="beg_1" departPos="5.10" departSpeed="0.00" departDelay="38.00" arrival="258.00" arrivalLane="end_1" arrivalPos="200.00" arrivalSpeed="12.31" duration="145.00" routeLength="494.90" waitSteps="75" timeLoss="104.79" rerouteNo="0" devices="tripinfo_mixed.75" vType="car" vaporized=""/>
    <tripinfo id="mixed.59" depart="88.00" departLane="beg_0" departPos="2.20" departSpeed="0.00" departDelay="29.00" arrival="259.00" arrivalLane="end_0" arrivalPos="200.00" arrivalSpeed="8.12" duration="171.00" routeLength="497.80" waitSteps="85" timeLoss="109.35" rerouteNo="0" devices="tripinfo_mixed.59" vType="moped" vaporized=""/>
    <tripinfo id="mixed.91" depart="141.00" departLane="beg_0" departPos="2.20" departSpeed="0.00" departDelay="50.00" arrival="259.00" arrivalLane="end_1" arrivalPos="200.00" arrivalSpeed="15.59" duration="118.00" routeLength="497.80" waitSteps="53" timeLoss="85.94" rerouteNo="0" devices="tripinfo_mixed.91" vType="moped" vaporized=""/>
    <tripinfo id="mixed.85" depart="129.00" departLane="beg_1" departPos="2.20" departSpeed="0.00" departDelay="44.00" arrival="260.00" arrivalLane="end_1" arrivalPos="200.00" arrivalSpeed="12.12" duration="131.00" routeLength="497.80" waitSteps="59" timeLoss="89.69" rerouteNo="0" devices="tripinfo_mixed.85" vType="moped" vaporized=""/>
    <tripinfo id="mixed.34" depart="54.00" departLane="beg_0" departPos="5.10" departSpeed="0.00" departDelay="20.00" arrival="261.00" arrivalLane="end_0" arrivalPos="200.00" arrivalSpeed="11.05" duration="207.00" routeLength="494.90" waitSteps="129" timeLoss="161.85" rerouteNo="0" devices="tripinfo_mixed.34" vType="car" vaporized=""/>
    <tripinfo id="mixed.86" depart="132.00" departLane="beg_1" departPos="2.20" departSpeed="0.00" departDelay="46.00" arrival="261.00" arrivalLane="end_1" arrivalPos="200.00" arrivalSpeed="12.89" duration="129.00" routeLength="497.80" waitSteps="57" timeLoss="98.89" rerouteNo="0" devices="tripinfo_mixed.86" vType="moped" vaporized=""/>
    <tripinfo id="mixed.2" depart="2.00" departLane="beg_0" departPos="2.20" departSpeed="0.00" departDelay="0.00" arrival="263.00" arrivalLane="end_0" arrivalPos="200.00" arrivalSpeed="4.04" duration="261.00" routeLength="497.80" waitSteps="137" timeLoss="149.90" rerouteNo="0" devices="tripinfo_mixed.2" vType="moped" vaporized=""/>
    <tripinfo id="mixed.60" depart="90.00" departLane="beg_1" departPos="5.10" departSpeed="0.00" departDelay="30.00" arrival="263.00" arrivalLane="end_1" arrivalPos="200.00" arrivalSpeed="13.69" duration="173.00" routeLength="494.90" waitSteps="94" timeLoss="138.02" rerouteNo="0" devices="tripinfo_mixed.60" vType="car" vaporized=""/>
    <tripinfo id="mixed.27" depart="43.00" departLane="beg_1" departPos="2.20" departSpeed="0.00" departDelay="16.00" arrival="264.00" arrivalLane="end_0" arrivalPos="200.00" arrivalSpeed="8.01" duration="221.00" routeLength="497.80" waitSteps="132" timeLoss="173.09" rerouteNo="0" devices="tripinfo_mixed.27" vType="moped" vaporized=""/>
    <tripinfo id="mixed.37" depart="57.00" departLane="beg_0" departPos="2.20" departSpeed="0.00" departDelay="20.00" arrival="265.00" arrivalLane="end_0" arrivalPos="200.00" arrivalSpeed="7.24" duration="208.00" routeLength="497.80" waitSteps="127" timeLoss="177.55" rerouteNo="0" devices="tripinfo_mixed.37" vType="moped" vaporized=""/>
    <tripinfo id="mixed.87" depart="133.00" departLane="beg_0" departPos="2.20" departSpeed="0.00" departDelay="46.00" arrival="265.00" arrivalLane="end_0" arrivalPos="200.00" arrivalSpeed="14.68" duration="132.00" routeLength="497.80" waitSteps="59" timeLoss="101.31" rerouteNo="0" devices="tripinfo_mixed.87" vType="moped" vaporized=""/>
    <tripinfo id="mixed.36" depart="57.00" departLane="beg_1" departPos="2.20" departSpeed="0.00" departDelay="21.00" arrival="265.00" arrivalLane="end_0" arrivalPos="200.00" arrivalSpeed="7.01" duration="208.00" routeLength="497.80" waitSteps="113" timeLoss="137.09" rerouteNo="0" devices="tripinfo_mixed.36" vType="moped" vaporized=""/>
    <tripinfo id="mixed.48" depart="70.00" departLane="beg_0" departPos="2.20" departSpeed="0.00" departDelay="22.00" arrival="266.00" arrivalLane="end_0" arrivalPos="200.00" arrivalSpeed="7.62" duration="196.00" routeLength="497.80" waitSteps="112" timeLoss="157.84" rerouteNo="0" devices="tripinfo_mixed.48" vType="moped" vaporized=""/>
    <tripinfo id="mixed.84" depart="128.00" departLane="beg_0" departPos="5.10" departSpeed="0.00" departDelay="44.00" arrival="266.00" arrivalLane="end_1" arrivalPos="200.00" arrivalSpeed="15.79" duration="138.00" routeLength="494.90" waitSteps="72" timeLoss="107.85" rerouteNo="0" devices="tripinfo_mixed.84" vType="car" vaporized=""/>
    <tripinfo id="mixed.49" depart="71.00" departLane="beg_1" departPos="2.20" departSpeed="0.00" departDelay="22.00" arrival="267.00" arrivalLane="end_0" arrivalPos="200.00" arrivalSpeed="8.30" duration="196.00" routeLength="497.80" waitSteps="112" timeLoss="152.66" rerouteNo="0" devices="tripinfo_mixed.49" vType="moped" vaporized=""/>
    <tripinfo id="mixed.94" depart="146.00" departLane="beg_1" departPos="2.20" departSpeed="0.00" departDelay="52.00" arrival="268.00" arrivalLane="end_1" arrivalPos="200.00" arrivalSpeed="15.14" duration="122.00" routeLength="497.80" waitSteps="55" timeLoss="89.77" rerouteNo="0" devices="tripinfo_mixed.94" vType="moped" vaporized=""/>
    <tripinfo id="mixed.97" depart="153.00" departLane="beg_1" departPos="2.20" departSpeed="0.00" departDelay="56.00" arrival="268.00" arrivalLane="end_1" arrivalPos="200.00" arrivalSpeed="16.63" duration="115.00" routeLength="497.80" waitSteps="56" timeLoss="84.80" rerouteNo="0" devices="tripinfo_mixed.97" vType="moped" vaporized=""/>
    <tripinfo id="mixed.58" depart="87.00" departLane="beg_1" departPos="5.10" departSpeed="0.00" departDelay="29.00" arrival="269.00" arrivalLane="end_0" arrivalPos="200.00" arrivalSpeed="11.80" duration="182.00" routeLength="494.90" waitSteps="98" timeLoss="150.92" rerouteNo="0" devices="tripinfo_mixed.58" vType="car" vaporized=""/>
    <tripinfo id="mixed.70" depart="107.00" departLane="beg_1" departPos="5.10" departSpeed="0.00" departDelay="37.00" arrival="269.00" arrivalLane="end_0" arrivalPos="200.00" arrivalSpeed="11.15" duration="162.00" routeLength="494.90" waitSteps="86" timeLoss="117.25" rerouteNo="0" devices="tripinfo_mixed.70" vType="car" vaporized=""/>
    <tripinfo id="mixed.69" depart="104.00" departLane="beg_0" departPos="5.10" departSpeed="0.00" departDelay="35.00" arrival="271.00" arrivalLane="end_0" arrivalPos="200.00" arrivalSpeed="9.47" duration="167.00" routeLength="494.90" waitSteps="83" timeLoss="116.92" rerouteNo="0" devices="tripinfo_mixed.69" vType="car" vaporized=""/>
    <tripinfo id="mixed.92" depart="144.00" departLane="beg_1" departPos="5.10" departSpeed="0.00" departDelay="52.00" arrival="271.00" arrivalLane="end_1" arrivalPos="200.00" arrivalSpeed="14.12" duration="127.00" routeLength="494.90" waitSteps="61" timeLoss="92.59" rerouteNo="0" devices="tripinfo_mixed.92" vType="car" vaporized=""/>
    <tripinfo id="mixed.80" depart="120.00" departLane="beg_1" departPos="2.20" departSpeed="0.00" departDelay="40.00" arrival="273.00" arrivalLane="end_0" arrivalPos="200.00" arrivalSpeed="11.14" duration="153.00" routeLength="497.80" waitSteps="74" timeLoss="122.39" rerouteNo="0" devices="tripinfo_mixed.80" vType="moped" vaporized=""/>
    <tripinfo id="mixed.96" depart="150.00" departLane="beg_0" departPos="5.10" departSpeed="0.00" departDelay="54.00" arrival="273.00" arrivalLane="end_1" arrivalPos="200.00" arrivalSpeed="16.40" duration="123.00" routeLength="494.90" waitSteps="55" timeLoss="93.48" rerouteNo="0" devices="tripinfo_mixed.96" vType="car" vaporized=""/>
    <tripinfo id="mixed.76" depart="114.00" departLane="beg_0" departPos="2.20" departSpeed="0.00" departDelay="38.00" arrival="274.00" arrivalLane="end_0" arrivalPos="200.00" arrivalSpeed="11.48" duration="160.00" routeLength="497.80" waitSteps="73" timeLoss="129.68" rerouteNo="0" devices="tripinfo_mixed.76" vType="moped" vaporized=""/>
    <tripinfo id="mixed.98" depart="155.00" departLane="beg_1" departPos="5.10" departSpeed="0.00" departDelay="57.00" arrival="275.00" arrivalLane="end_1" arrivalPos="200.00" arrivalSpeed="14.07" duration="120.00" routeLength="494.90" waitSteps="58" timeLoss="85.79" rerouteNo="0" devices="tripinfo_mixed.98" vType="car" vaporized=""/>
    <tripinfo id="mixed.39" depart="59.00" departLane="beg_0" departPos="2.20" departSpeed="0.00" departDelay="20.00" arrival="276.00" arrivalLane="end_0" arrivalPos="200.00" arrivalSpeed="11.85" duration="217.00" routeLength="497.80" waitSteps="89" timeLoss="186.07" rerouteNo="0" devices="tripinfo_mixed.39" vType="moped" vaporized=""/>
    <tripinfo id="mixed.95" depart="148.00" departLane="beg_1" departPos="5.10" departSpeed="0.00" departDelay="53.00" arrival="277.00" arrivalLane="end_1" arrivalPos="200.00" arrivalSpeed="13.31" duration="129.00" routeLength="494.90" waitSteps="56" timeLoss="92.72" rerouteNo="0" devices="tripinfo_mixed.95" vType="car" vaporized=""/>
    <tripinfo id="mixed.29" depart="45.00" departLane="beg_0" departPos="2.20" departSpeed="0.00" departDelay="16.00" arrival="278.00" arrivalLane="end_0" arrivalPos="200.00" arrivalSpeed="4.39" duration="233.00" routeLength="497.80" waitSteps="113" timeLoss="126.69" rerouteNo="0" devices="tripinfo_mixed.29" vType="moped" vaporized=""/>
    <tripinfo id="mixed.51" depart="74.00" departLane="beg_1" departPos="2.20" departSpeed="0.00" departDelay="23.00" arrival="279.00" arrivalLane="end_0" arrivalPos="200.00" arrivalSpeed="9.59" duration="205.00" routeLength="497.80" waitSteps="110" timeLoss="158.71" rerouteNo="0" devices="tripinfo_mixed.51" vType="moped" vaporized=""/>
    <tripinfo id="mixed.42" depart="62.00" departLane="beg_0" departPos="2.20" departSpeed="0.00" departDelay="20.00" arrival="280.00" arrivalLane="end_0" arrivalPos="200.00" arrivalSpeed="5.88" duration="218.00" routeLength="497.80" waitSteps="112" timeLoss="157.06" rerouteNo="0" devices="tripinfo_mixed.42" vType="moped" vaporized=""/>
    <tripinfo id="mixed.74" depart="113.00" departLane="beg_0" departPos="2.20" departSpeed="0.00" departDelay="39.00" arrival="280.00" arrivalLane="end_0" arrivalPos="200.00" arrivalSpeed="12.04" duration="167.00" routeLength="497.80" waitSteps="86" timeLoss="125.66" rerouteNo="0" devices="tripinfo_mixed.74" vType="moped" vaporized=""/>
    <tripinfo id="mixed.73" depart="109.00" departLane="beg_1" departPos="2.20" departSpeed="0.00" departDelay="36.00" arrival="280.00" arrivalLane="end_1" arrivalPos="200.00" arrivalSpeed="11.13" duration="171.00" routeLength="497.80" waitSteps="80" timeLoss="140.53" rerouteNo="0" devices="tripinfo_mixed.73" vType="moped" vaporized=""/>
    <tripinfo id="mixed.77" depart="115.00" departLane="beg_1" departPos="2.20" departSpeed="0.00" departDelay="38.00" arrival="281.00" arrivalLane="end_1" arrivalPos="200.00" arrivalSpeed="11.96" duration="166.00" routeLength="497.80" waitSteps="83" timeLoss="135.79" rerouteNo="0" devices="tripinfo_mixed.77" vType="moped" vaporized=""/>
    <tripinfo id="mixed.55" depart="81.00" departLane="beg_1" departPos="5.10" departSpeed="0.00" departDelay="26.00" arrival="282.00" arrivalLane="end_0" arrivalPos="200.00" arrivalSpeed="9.02" duration="201.00" routeLength="494.90" waitSteps="105" timeLoss="171.52" rerouteNo="0" devices="tripinfo_mixed.55" vType="car" vaporized=""/>
    <tripinfo id="mixed.90" depart="140.00" departLane="beg_0" departPos="2.20" departSpeed="0.00" departDelay="50.00" arrival="282.00" arrivalLane="end_1" arrivalPos="200.00" arrivalSpeed="10.51" duration="142.00" routeLength="497.80" waitSteps="69" timeLoss="94.35" rerouteNo="0" devices="tripinfo_mixed.90" vType="moped" vaporized=""/>
    <tripinfo id="mixed.56" depart="84.00" departLane="beg_1" departPos="5.10" departSpeed="0.00" departDelay="28.00" arrival="283.00" arrivalLane="end_0" arrivalPos="200.00" arrivalSpeed="9.51" duration="199.00" routeLength="494.90" waitSteps="107" timeLoss="165.34" rerouteNo="0" devices="tripinfo_mixed.56" vType="car" vaporized=""/>
    <tripinfo id="mixed.88" depart="137.00" departLane="beg_1" departPos="5.10" departSpeed="0.00" departDelay="49.00" arrival="283.00" arrivalLane="end_1" arrivalPos="200.00" arrivalSpeed="12.29" duration="146.00" routeLength="494.90" waitSteps="66" timeLoss="109.64" rerouteNo="0" devices="tripinfo_mixed.88" vType="car" vaporized=""/>