<?xml version="1.0" encoding="UTF-8"?>

<!-- generated on Tue Nov 17 13:37:29 2015 by SUMO Version dev-SVN-r19331
<?xml version="1.0" encoding="UTF-8"?>

<configuration xmlns:xsi="http://www.w3.org/2001/XMLSchema-instance" xsi:noNamespaceSchemaLocation="http://sumo.dlr.de/xsd/sumoConfiguration.xsd">

    <input>
        <net-file value="net.net.xml"/>
        <route-files value="input_routes.rou.xml"/>
    </input>

    <output>
        <tripinfo-output value="tripinfos.xml"/>
    </output>

    <processing>
        <lateral-resolution value="0.64"/>
    </processing>

    <report>
        <xml-validation value="never"/>
        <no-step-log value="true"/>
    </report>

</configuration>
-->

<tripinfos xmlns:xsi="http://www.w3.org/2001/XMLSchema-instance" xsi:noNamespaceSchemaLocation="http://sumo.dlr.de/xsd/tripinfo_file.xsd">
    <tripinfo id="mixed.8" depart="13.00" departLane="beg_1" departPos="5.10" departSpeed="0.00" departDelay="5.00" arrival="216.00" arrivalLane="end_0" arrivalPos="200.00" arrivalSpeed="17.06" duration="203.00" routeLength="494.90" waitSteps="160" timeLoss="173.43" rerouteNo="0" devices="tripinfo_mixed.8" vType="car" vaporized=""/>
    <tripinfo id="mixed.5" depart="7.00" departLane="beg_1" departPos="5.10" departSpeed="0.00" departDelay="2.00" arrival="217.00" arrivalLane="end_0" arrivalPos="200.00" arrivalSpeed="13.53" duration="210.00" routeLength="494.90" waitSteps="164" timeLoss="175.12" rerouteNo="0" devices="tripinfo_mixed.5" vType="car" vaporized=""/>
    <tripinfo id="mixed.11" depart="20.00" departLane="beg_1" departPos="5.10" departSpeed="0.00" departDelay="9.00" arrival="218.00" arrivalLane="end_0" arrivalPos="200.00" arrivalSpeed="14.45" duration="198.00" routeLength="494.90" waitSteps="153" timeLoss="165.01" rerouteNo="0" devices="tripinfo_mixed.11" vType="car" vaporized=""/>
    <tripinfo id="mixed.6" depart="8.00" departLane="beg_0" departPos="2.20" departSpeed="0.00" departDelay="2.00" arrival="222.00" arrivalLane="end_0" arrivalPos="200.00" arrivalSpeed="16.56" duration="214.00" routeLength="497.80" waitSteps="159" timeLoss="183.19" rerouteNo="0" devices="tripinfo_mixed.6" vType="moped" vaporized=""/>
    <tripinfo id="mixed.20" depart="33.00" departLane="beg_0" departPos="5.10" departSpeed="0.00" departDelay="13.00" arrival="222.00" arrivalLane="end_1" arrivalPos="200.00" arrivalSpeed="17.32" duration="189.00" routeLength="494.90" waitSteps="131" timeLoss="160.57" rerouteNo="0" devices="tripinfo_mixed.20" vType="car" vaporized=""/>
    <tripinfo id="mixed.9" depart="16.00" departLane="beg_1" departPos="5.10" departSpeed="0.00" departDelay="7.00" arrival="223.00" arrivalLane="end_0" arrivalPos="200.00" arrivalSpeed="10.11" duration="207.00" routeLength="494.90" waitSteps="150" timeLoss="162.14" rerouteNo="0" devices="tripinfo_mixed.9" vType="car" vaporized=""/>
    <tripinfo id="mixed.17" depart="27.00" departLane="beg_1" departPos="5.10" departSpeed="0.00" departDelay="10.00" arrival="225.00" arrivalLane="end_0" arrivalPos="200.00" arrivalSpeed="13.68" duration="198.00" routeLength="494.90" waitSteps="146" timeLoss="162.20" rerouteNo="0" devices="tripinfo_mixed.17" vType="car" vaporized=""/>
    <tripinfo id="mixed.0" depart="0.00" departLane="beg_0" departPos="2.20" departSpeed="0.00" departDelay="0.00" arrival="226.00" arrivalLane="end_0" arrivalPos="200.00" arrivalSpeed="10.06" duration="226.00" routeLength="497.80" waitSteps="164" timeLoss="177.43" rerouteNo="0" devices="tripinfo_mixed.0" vType="moped" vaporized=""/>
    <tripinfo id="mixed.15" depart="25.00" departLane="beg_0" departPos="2.20" departSpeed="0.00" departDelay="10.00" arrival="226.00" arrivalLane="end_0" arrivalPos="200.00" arrivalSpeed="12.45" duration="201.00" routeLength="497.80" waitSteps="137" timeLoss="168.81" rerouteNo="0" devices="tripinfo_mixed.15" vType="moped" vaporized=""/>
    <tripinfo id="mixed.19" depart="30.00" departLane="beg_0" departPos="5.10" departSpeed="0.00" departDelay="11.00" arrival="226.00" arrivalLane="end_1" arrivalPos="200.00" arrivalSpeed="14.61" duration="196.00" routeLength="494.90" waitSteps="137" timeLoss="162.42" rerouteNo="0" devices="tripinfo_mixed.19" vType="car" vaporized=""/>
    <tripinfo id="mixed.3" depart="4.00" departLane="beg_1" departPos="2.20" departSpeed="0.00" departDelay="1.00" arrival="227.00" arrivalLane="end_0" arrivalPos="200.00" arrivalSpeed="10.86" duration="223.00" routeLength="497.80" waitSteps="161" timeLoss="186.05" rerouteNo="0" devices="tripinfo_mixed.3" vType="moped" vaporized=""/>
    <tripinfo id="mixed.22" depart="35.00" departLane="beg_0" departPos="2.20" departSpeed="0.00" departDelay="13.00" arrival="227.00" arrivalLane="end_1" arrivalPos="200.00" arrivalSpeed="16.21" duration="192.00" routeLength="497.80" waitSteps="128" timeLoss="161.13" rerouteNo="0" devices="tripinfo_mixed.22" vType="moped" vaporized=""/>
    <tripinfo id="mixed.14" depart="22.00" departLane="beg_0" departPos="2.20" departSpeed="0.00" departDelay="8.00" arrival="228.00" arrivalLane="end_0" arrivalPos="200.00" arrivalSpeed="13.97" duration="206.00" routeLength="497.80" waitSteps="146" timeLoss="171.16" rerouteNo="0" devices="tripinfo_mixed.14" vType="moped" vaporized=""/>
    <tripinfo id="mixed.23" depart="35.00" departLane="beg_0" departPos="2.20" departSpeed="0.00" departDelay="12.00" arrival="228.00" arrivalLane="end_1" arrivalPos="200.00" arrivalSpeed="16.17" duration="193.00" routeLength="497.80" waitSteps="126" timeLoss="162.51" rerouteNo="0" devices="tripinfo_mixed.23" vType="moped" vaporized=""/>
    <tripinfo id="mixed.7" depart="11.00" departLane="beg_1" departPos="2.20" departSpeed="0.00" departDelay="4.00" arrival="230.00" arrivalLane="end_0" arrivalPos="200.00" arrivalSpeed="9.24" duration="219.00" routeLength="497.80" waitSteps="148" timeLoss="166.70" rerouteNo="0" devices="tripinfo_mixed.7" vType="moped" vaporized=""/>
    <tripinfo id="mixed.26" depart="41.00" departLane="beg_0" departPos="2.20" departSpeed="0.00" departDelay="15.00" arrival="230.00" arrivalLane="end_1" arrivalPos="200.00" arrivalSpeed="14.71" duration="189.00" routeLength="497.80" waitSteps="126" timeLoss="155.28" rerouteNo="0" devices="tripinfo_mixed.26" vType="moped" vaporized=""/>
    <tripinfo id="mixed.21" depart="33.00" departLane="beg_1" departPos="5.10" departSpeed="0.00" departDelay="12.00" arrival="232.00" arrivalLane="end_0" arrivalPos="200.00" arrivalSpeed="10.15" duration="199.00" routeLength="494.90" waitSteps="134" timeLoss="152.85" rerouteNo="0" devices="tripinfo_mixed.21" vType="car" vaporized=""/>
    <tripinfo id="mixed.18" depart="30.00" departLane="beg_1" departPos="5.10" departSpeed="0.00" departDelay="12.00" arrival="233.00" arrivalLane="end_0" arrivalPos="200.00" arrivalSpeed="10.27" duration="203.00" routeLength="494.90" waitSteps="131" timeLoss="155.07" rerouteNo="0" devices="tripinfo_mixed.18" vType="car" vaporized=""/>
    <tripinfo id="mixed.25" depart="40.00" departLane="beg_1" departPos="5.10" departSpeed="0.00" departDelay="15.00" arrival="233.00" arrivalLane="end_1" arrivalPos="200.00" arrivalSpeed="11.96" duration="193.00" routeLength="494.90" waitSteps="133" timeLoss="154.62" rerouteNo="0" devices="tripinfo_mixed.25" vType="car" vaporized=""/>
    <tripinfo id="mixed.4" depart="4.00" departLane="beg_0" departPos="2.20" departSpeed="0.00" departDelay="0.00" arrival="235.00" arrivalLane="end_0" arrivalPos="200.00" arrivalSpeed="7.39" duration="231.00" routeLength="497.80" waitSteps="151" timeLoss="164.90" rerouteNo="0" devices="tripinfo_mixed.4" vType="moped" vaporized=""/>
    <tripinfo id="mixed.13" depart="22.00" departLane="beg_0" departPos="2.20" departSpeed="0.00" departDelay="9.00" arrival="235.00" arrivalLane="end_0" arrivalPos="200.00" arrivalSpeed="11.63" duration="213.00" routeLength="497.80" waitSteps="147" timeLoss="182.84" rerouteNo="0" devices="tripinfo_mixed.13" vType="moped" vaporized=""/>
    <tripinfo id="mixed.35" depart="55.00" departLane="beg_1" departPos="2.20" departSpeed="0.00" departDelay="20.00" arrival="235.00" arrivalLane="end_0" arrivalPos="200.00" arrivalSpeed="11.53" duration="180.00" routeLength="497.80" waitSteps="122" timeLoss="146.67" rerouteNo="0" devices="tripinfo_mixed.35" vType="moped" vaporized=""/>
    <tripinfo id="mixed.32" depart="51.00" departLane="beg_1" departPos="5.10" departSpeed="0.00" departDelay="19.00" arrival="235.00" arrivalLane="end_1" arrivalPos="200.00" arrivalSpeed="13.69" duration="184.00" routeLength="494.90" waitSteps="125" timeLoss="150.23" rerouteNo="0" devices="tripinfo_mixed.32" vType="car" vaporized=""/>
    <tripinfo id="mixed.41" depart="63.00" departLane="beg_1" departPos="2.20" departSpeed="0.00" departDelay="22.00" arrival="237.00" arrivalLane="end_0" arrivalPos="200.00" arrivalSpeed="12.49" duration="174.00" routeLength="497.80" waitSteps="117" timeLoss="143.45" rerouteNo="0" devices="tripinfo_mixed.41" vType="moped" vaporized=""/>
    <tripinfo id="mixed.10" depart="16.00" departLane="beg_0" departPos="2.20" departSpeed="0.00" departDelay="6.00" arrival="237.00" arrivalLane="end_0" arrivalPos="200.00" arrivalSpeed="8.52" duration="221.00" routeLength="497.80" waitSteps="149" timeLoss="169.77" rerouteNo="0" devices="tripinfo_mixed.10" vType="moped" vaporized=""/>
    <tripinfo id="mixed.12" depart="22.00" departLane="beg_1" departPos="2.20" departSpeed="0.00" departDelay="10.00" arrival="237.00" arrivalLane="end_0" arrivalPos="200.00" arrivalSpeed="9.81" duration="215.00" routeLength="497.80" waitSteps="147" timeLoss="166.61" rerouteNo="0" devices="tripinfo_mixed.12" vType="moped" vaporized=""/>
    <tripinfo id="mixed.37" depart="57.00" departLane="beg_1" departPos="2.20" departSpeed="0.00" departDelay="20.00" arrival="237.00" arrivalLane="end_1" arrivalPos="200.00" arrivalSpeed="13.86" duration="180.00" routeLength="497.80" waitSteps="119" timeLoss="149.28" rerouteNo="0" devices="tripinfo_mixed.37" vType="moped" vaporized=""/>
    <tripinfo id="mixed.39" depart="60.00" departLane="beg_0" departPos="2.20" departSpeed="0.00" departDelay="21.00" arrival="237.00" arrivalLane="end_1" arrivalPos="200.00" arrivalSpeed="13.95" duration="177.00" routeLength="497.80" waitSteps="117" timeLoss="146.09" rerouteNo="0" devices="tripinfo_mixed.39" vType="moped" vaporized=""/>
    <tripinfo id="mixed.30" depart="48.00" departLane="beg_1" departPos="2.20" departSpeed="0.00" departDelay="18.00" arrival="238.00" arrivalLane="end_0" arrivalPos="200.00" arrivalSpeed="9.75" duration="190.00" routeLength="497.80" waitSteps="126" timeLoss="157.95" rerouteNo="0" devices="tripinfo_mixed.30" vType="moped" vaporized=""/>
    <tripinfo id="mixed.44" depart="68.00" departLane="beg_1" departPos="5.10" departSpeed="0.00" departDelay="24.00" arrival="239.00" arrivalLane="end_1" arrivalPos="200.00" arrivalSpeed="13.58" duration="171.00" routeLength="494.90" waitSteps="114" timeLoss="135.95" rerouteNo="0" devices="tripinfo_mixed.44" vType="car" vaporized=""/>
    <tripinfo id="mixed.43" depart="63.00" departLane="beg_0" departPos="2.20" departSpeed="0.00" departDelay="20.00" arrival="240.00" arrivalLane="end_0" arrivalPos="200.00" arrivalSpeed="11.36" duration="177.00" routeLength="497.80" waitSteps="112" timeLoss="134.11" rerouteNo="0" devices="tripinfo_mixed.43" vType="moped" vaporized=""/>
    <tripinfo id="mixed.46" depart="71.00" departLane="beg_1" departPos="2.20" departSpeed="0.00" departDelay="25.00" arrival="240.00" arrivalLane="end_1" arrivalPos="200.00" arrivalSpeed="13.66" duration="169.00" routeLength="497.80" waitSteps="104" timeLoss="138.77" rerouteNo="0" devices="tripinfo_mixed.46" vType="moped" vaporized=""/>
    <tripinfo id="mixed.16" depart="25.00" departLane="beg_1" departPos="2.20" departSpeed="0.00" departDelay="9.00" arrival="241.00" arrivalLane="end_0" arrivalPos="200.00" arrivalSpeed="7.53" duration="216.00" routeLength="497.80" waitSteps="126" timeLoss="150.84" rerouteNo="0" devices="tripinfo_mixed.16" vType="moped" vaporized=""/>
    <tripinfo id="mixed.47" depart="73.00" departLane="beg_0" departPos="2.20" departSpeed="0.00" departDelay="26.00" arrival="242.00" arrivalLane="end_0" arrivalPos="200.00" arrivalSpeed="11.43" duration="169.00" routeLength="497.80" waitSteps="103" timeLoss="131.97" rerouteNo="0" devices="tripinfo_mixed.47" vType="moped" vaporized=""/>
    <tripinfo id="mixed.28" depart="44.00" departLane="beg_1" departPos="2.20" departSpeed="0.00" departDelay="16.00" arrival="242.00" arrivalLane="end_0" arrivalPos="200.00" arrivalSpeed="9.69" duration="198.00" routeLength="497.80" waitSteps="126" timeLoss="167.74" rerouteNo="0" devices="tripinfo_mixed.28" vType="moped" vaporized=""/>
    <tripinfo id="mixed.52" depart="83.00" departLane="beg_1" departPos="5.10" departSpeed="0.00" departDelay="31.00" arrival="242.00" arrivalLane="end_1" arrivalPos="200.00" arrivalSpeed="13.67" duration="159.00" routeLength="494.90" waitSteps="95" timeLoss="124.31" rerouteNo="0" devices="tripinfo_mixed.52" vType="car" vaporized=""/>
    <tripinfo id="mixed.31" depart="49.00" departLane="beg_0" departPos="2.20" departSpeed="0.00" departDelay="18.00" arrival="243.00" arrivalLane="end_0" arrivalPos="200.00" arrivalSpeed="9.63" duration="194.00" routeLength="497.80" waitSteps="122" timeLoss="163.95" rerouteNo="0" devices="tripinfo_mixed.31" vType="moped" vaporized=""/>
    <tripinfo id="mixed.54" depart="87.00" departLane="beg_1" departPos="5.10" departSpeed="0.00" departDelay="33.00" arrival="244.00" arrivalLane="end_1" arrivalPos="200.00" arrivalSpeed="14.37" duration="157.00" routeLength="494.90" waitSteps="94" timeLoss="124.02" rerouteNo="0" devices="tripinfo_mixed.54" vType="car" vaporized=""/>
    <tripinfo id="mixed.40" depart="61.00" departLane="beg_1" departPos="2.20" departSpeed="0.00" departDelay="21.00" arrival="245.00" arrivalLane="end_0" arrivalPos="200.00" arrivalSpeed="9.84" duration="184.00" routeLength="497.80" waitSteps="114" timeLoss="148.15" rerouteNo="0" devices="tripinfo_mixed.40" vType="moped" vaporized=""/>
    <tripinfo id="mixed.56" depart="91.00" departLane="beg_1" departPos="5.10" departSpeed="0.00" departDelay="35.00" arrival="245.00" arrivalLane="end_1" arrivalPos="200.00" arrivalSpeed="14.67" duration="154.00" routeLength="494.90" waitSteps="93" timeLoss="120.31" rerouteNo="0" devices="tripinfo_mixed.56" vType="car" vaporized=""/>
    <tripinfo id="mixed.34" depart="54.00" departLane="beg_0" departPos="5.10" departSpeed="0.00" departDelay="20.00" arrival="247.00" arrivalLane="end_0" arrivalPos="200.00" arrivalSpeed="9.89" duration="193.00" routeLength="494.90" waitSteps="119" timeLoss="147.82" rerouteNo="0" devices="tripinfo_mixed.34" vType="car" vaporized=""/>
    <tripinfo id="mixed.60" depart="95.00" departLane="beg_0" departPos="5.10" departSpeed="0.00" departDelay="35.00" arrival="247.00" arrivalLane="end_1" arrivalPos="200.00" arrivalSpeed="14.04" duration="152.00" routeLength="494.90" waitSteps="90" timeLoss="117.19" rerouteNo="0" devices="tripinfo_mixed.60" vType="car" vaporized=""/>
    <tripinfo id="mixed.45" depart="71.00" departLane="beg_0" departPos="5.10" departSpeed="0.00" departDelay="26.00" arrival="249.00" arrivalLane="end_0" arrivalPos="200.00" arrivalSpeed="12.63" duration="178.00" routeLength="494.90" waitSteps="112" timeLoss="141.15" rerouteNo="0" devices="tripinfo_mixed.45" vType="car" vaporized=""/>
    <tripinfo id="mixed.62" depart="98.00" departLane="beg_0" departPos="2.20" departSpeed="0.00" departDelay="36.00" arrival="249.00" arrivalLane="end_1" arrivalPos="200.00" arrivalSpeed="12.06" duration="151.00" routeLength="497.80" waitSteps="87" timeLoss="111.09" rerouteNo="0" devices="tripinfo_mixed.62" vType="moped" vaporized=""/>
    <tripinfo id="mixed.38" depart="59.00" departLane="beg_1" departPos="2.20" departSpeed="0.00" departDelay="21.00" arrival="250.00" arrivalLane="end_0" arrivalPos="200.00" arrivalSpeed="11.81" duration="191.00" routeLength="497.80" waitSteps="117" timeLoss="160.94" rerouteNo="0" devices="tripinfo_mixed.38" vType="moped" vaporized=""/>
    <tripinfo id="mixed.48" depart="74.00" departLane="beg_1" departPos="2.20" departSpeed="0.00" departDelay="26.00" arrival="251.00" arrivalLane="end_0" arrivalPos="200.00" arrivalSpeed="10.73" duration="177.00" routeLength="497.80" waitSteps="107" timeLoss="138.48" rerouteNo="0" devices="tripinfo_mixed.48" vType="moped" vaporized=""/>
    <tripinfo id="mixed.58" depart="92.00" departLane="beg_0" departPos="5.10" departSpeed="0.00" departDelay="34.00" arrival="251.00" arrivalLane="end_1" arrivalPos="200.00" arrivalSpeed="15.64" duration="159.00" routeLength="494.90" waitSteps="92" timeLoss="128.08" rerouteNo="0" devices="tripinfo_mixed.58" vType="car" vaporized=""/>
    <tripinfo id="mixed.61" depart="96.00" departLane="beg_1" departPos="2.20" departSpeed="0.00" departDelay="35.00" arrival="252.00" arrivalLane="end_0" arrivalPos="200.00" arrivalSpeed="12.40" duration="156.00" routeLength="497.80" waitSteps="86" timeLoss="125.55" rerouteNo="0" devices="tripinfo_mixed.61" vType="moped" vaporized=""/>
    <tripinfo id="mixed.49" depart="77.00" departLane="beg_1" departPos="2.20" departSpeed="0.00" departDelay="28.00" arrival="252.00" arrivalLane="end_0" arrivalPos="200.00" arrivalSpeed="10.91" duration="175.00" routeLength="497.80" waitSteps="99" timeLoss="132.00" rerouteNo="0" devices="tripinfo_mixed.49" vType="moped" vaporized=""/>
    <tripinfo id="mixed.24" depart="39.00" departLane="beg_0" departPos="2.20" departSpeed="0.00" departDelay="15.00" arrival="254.00" arrivalLane="end_0" arrivalPos="200.00" arrivalSpeed="12.06" duration="215.00" routeLength="497.80" waitSteps="138" timeLoss="177.65" rerouteNo="0" devices="tripinfo_mixed.24" vType="moped" vaporized=""/>
    <tripinfo id="mixed.55" depart="88.00" departLane="beg_0" departPos="5.10" departSpeed="0.00" departDelay="33.00" arrival="254.00" arrivalLane="end_1" arrivalPos="200.00" arrivalSpeed="15.83" duration="166.00" routeLength="494.90" waitSteps="93" timeLoss="136.21" rerouteNo="0" devices="tripinfo_mixed.55" vType="car" vaporized=""/>
    <tripinfo id="mixed.64" depart="104.00" departLane="beg_1" departPos="5.10" departSpeed="0.00" departDelay="40.00" arrival="256.00" arrivalLane="end_0" arrivalPos="200.00" arrivalSpeed="13.16" duration="152.00" routeLength="494.90" waitSteps="85" timeLoss="115.84" rerouteNo="0" devices="tripinfo_mixed.64" vType="car" vaporized=""/>
    <tripinfo id="mixed.67" depart="107.00" departLane="beg_0" departPos="2.20" departSpeed="0.00" departDelay="40.00" arrival="257.00" arrivalLane="end_0" arrivalPos="200.00" arrivalSpeed="13.26" duration="150.00" routeLength="497.80" waitSteps="84" timeLoss="119.86" rerouteNo="0" devices="tripinfo_mixed.67" vType="moped" vaporized=""/>
    <tripinfo id="mixed.1" depart="1.00" departLane="beg_1" departPos="2.20" departSpeed="0.00" departDelay="0.00" arrival="258.00" arrivalLane="end_0" arrivalPos="200.00" arrivalSpeed="4.69" duration="257.00" routeLength="497.80" waitSteps="144" timeLoss="156.09" rerouteNo="0" devices="tripinfo_mixed.1" vType="moped" vaporized=""/>
    <tripinfo id="mixed.57" depart="92.00" departLane="beg_1" departPos="2.20" departSpeed="0.00" departDelay="35.00" arrival="259.00" arrivalLane="end_0" arrivalPos="200.00" arrivalSpeed="9.29" duration="167.00" routeLength="497.80" waitSteps="86" timeLoss="113.45" rerouteNo="0" devices="tripinfo_mixed.57" vType="moped" vaporized=""/>
    <tripinfo id="mixed.36" depart="56.00" departLane="beg_0" departPos="2.20" departSpeed="0.00" departDelay="20.00" arrival="260.00" arrivalLane="end_1" arrivalPos="200.00" arrivalSpeed="6.62" duration="204.00" routeLength="497.80" waitSteps="110" timeLoss="133.21" rerouteNo="0" devices="tripinfo_mixed.36" vType="moped" vaporized=""/>
    <tripinfo id="mixed.68" depart="107.00" departLane="beg_0" departPos="2.20" departSpeed="0.00" departDelay="39.00" arrival="261.00" arrivalLane="end_0" arrivalPos="200.00" arrivalSpeed="11.09" duration="154.00" routeLength="497.80" waitSteps="85" timeLoss="123.49" rerouteNo="0" devices="tripinfo_mixed.68" vType="moped" vaporized=""/>
    <tripinfo id="mixed.65" depart="105.00" departLane="beg_1" departPos="2.20" departSpeed="0.00" departDelay="40.00" arrival="261.00" arrivalLane="end_0" arrivalPos="200.00" arrivalSpeed="10.68" duration="156.00" routeLength="497.80" waitSteps="83" timeLoss="109.29" rerouteNo="0" devices="tripinfo_mixed.65" vType="moped" vaporized=""/>
    <tripinfo id="mixed.59" depart="95.00" departLane="beg_1" departPos="2.20" departSpeed="0.00" departDelay="36.00" arrival="261.00" arrivalLane="end_1" arrivalPos="200.00" arrivalSpeed="7.86" duration="166.00" routeLength="497.80" waitSteps="86" timeLoss="104.48" rerouteNo="0" devices="tripinfo_mixed.59" vType="moped" vaporized=""/>
    <tripinfo id="mixed.78" depart="127.00" departLane="beg_0" departPos="5.10" departSpeed="0.00" departDelay="49.00" arrival="263.00" arrivalLane="end_1" arrivalPos="200.00" arrivalSpeed="12.58" duration="136.00" routeLength="494.90" waitSteps="65" timeLoss="101.79" rerouteNo="0" devices="tripinfo_mixed.78" vType="car" vaporized=""/>
    <tripinfo id="mixed.71" depart="114.00" departLane="beg_1" departPos="5.10" departSpeed="0.00" departDelay="43.00" arrival="264.00" arrivalLane="end_1" arrivalPos="200.00" arrivalSpeed="11.82" duration="150.00" routeLength="494.90" waitSteps="79" timeLoss="121.99" rerouteNo="0" devices="tripinfo_mixed.71" vType="car" vaporized=""/>
    <tripinfo id="mixed.81" depart="130.00" departLane="beg_0" departPos="5.10" departSpeed="0.00" departDelay="49.00" arrival="264.00" arrivalLane="end_1" arrivalPos="200.00" arrivalSpeed="11.93" duration="134.00" routeLength="494.90" waitSteps="63" timeLoss="108.37" rerouteNo="0" devices="tripinfo_mixed.81" vType="car" vaporized=""/>
    <tripinfo id="mixed.27" depart="42.00" departLane="beg_1" departPos="2.20" departSpeed="0.00" departDelay="15.00" arrival="265.00" arrivalLane="end_0" arrivalPos="200.00" arrivalSpeed="9.76" duration="223.00" routeLength="497.80" waitSteps="134" timeLoss="174.87" rerouteNo="0" devices="tripinfo_mixed.27" vType="moped" vaporized=""/>
    <tripinfo id="mixed.2" depart="2.00" departLane="beg_0" departPos="2.20" departSpeed="0.00" departDelay="0.00" arrival="266.00" arrivalLane="end_0" arrivalPos="200.00" arrivalSpeed="4.05" duration="264.00" routeLength="497.80" waitSteps="138" timeLoss="153.06" rerouteNo="0" devices="tripinfo_mixed.2" vType="moped" vaporized=""/>
    <tripinfo id="mixed.73" depart="116.00" departLane="beg_1" departPos="2.20" departSpeed="0.00" departDelay="43.00" arrival="266.00" arrivalLane="end_1" arrivalPos="200.00" arrivalSpeed="11.85" duration="150.00" routeLength="497.80" waitSteps="73" timeLoss="119.70" rerouteNo="0" devices="tripinfo_mixed.73" vType="moped" vaporized=""/>
    <tripinfo id="mixed.87" depart="136.00" departLane="beg_1" departPos="2.20" departSpeed="0.00" departDelay="49.00" arrival="266.00" arrivalLane="end_1" arrivalPos="200.00" arrivalSpeed="10.48" duration="130.00" routeLength="497.80" waitSteps="60" timeLoss="99.99" rerouteNo="0" devices="tripinfo_mixed.87" vType="moped" vaporized=""/>
    <tripinfo id="mixed.69" depart="111.00" departLane="beg_1" departPos="5.10" departSpeed="0.00" departDelay="42.00" arrival="267.00" arrivalLane="end_0" arrivalPos="200.00" arrivalSpeed="9.12" duration="156.00" routeLength="494.90" waitSteps="81" timeLoss="105.78" rerouteNo="0" devices="tripinfo_mixed.69" vType="car" vaporized=""/>
    <tripinfo id="mixed.94" depart="148.00" departLane="beg_0" departPos="2.20" departSpeed="0.00" departDelay="54.00" arrival="267.00" arrivalLane="end_1" arrivalPos="200.00" arrivalSpeed="11.95" duration="119.00" routeLength="497.80" waitSteps="45" timeLoss="87.15" rerouteNo="0" devices="tripinfo_mixed.94" vType="moped" vaporized=""/>
    <tripinfo id="mixed.97" depart="153.00" departLane="beg_0" departPos="2.20" departSpeed="0.00" departDelay="56.00" arrival="268.00" arrivalLane="end_1" arrivalPos="200.00" arrivalSpeed="11.10" duration="115.00" routeLength="497.80" waitSteps="44" timeLoss="84.66" rerouteNo="0" devices="tripinfo_mixed.97" vType="moped" vaporized=""/>
    <tripinfo id="mixed.70" depart="111.00" departLane="beg_0" departPos="5.10" departSpeed="0.00" departDelay="41.00" arrival="269.00" arrivalLane="end_0" arrivalPos="200.00" arrivalSpeed="10.81" duration="158.00" routeLength="494.90" waitSteps="80" timeLoss="113.15" rerouteNo="0" devices="tripinfo_mixed.70" vType="car" vaporized=""/>
    <tripinfo id="mixed.63" depart="99.00" departLane="beg_0" departPos="2.20" departSpeed="0.00" departDelay="36.00" arrival="269.00" arrivalLane="end_0" arrivalPos="200.00" arrivalSpeed="12.58" duration="170.00" routeLength="497.80" waitSteps="87" timeLoss="130.32" rerouteNo="0" devices="tripinfo_mixed.63" vType="moped" vaporized=""/>
    <tripinfo id="mixed.88" depart="140.00" departLane="beg_1" departPos="5.10" departSpeed="0.00" departDelay="52.00" arrival="270.00" arrivalLane="end_1" arrivalPos="200.00" arrivalSpeed="13.49" duration="130.00" routeLength="494.90" waitSteps="62" timeLoss="92.85" rerouteNo="0" devices="tripinfo_mixed.88" vType="car" vaporized=""/>
    <tripinfo id="mixed.79" depart="127.00" departLane="beg_1" departPos="5.10" departSpeed="0.00" departDelay="48.00" arrival="271.00" arrivalLane="end_0" arrivalPos="200.00" arrivalSpeed="13.07" duration="144.00" routeLength="494.90" waitSteps="71" timeLoss="105.89" rerouteNo="0" devices="tripinfo_mixed.79" vType="car" vaporized=""/>
    <tripinfo id="mixed.92" depart="146.00" departLane="beg_1" departPos="5.10" departSpeed="0.00" departDelay="54.00" arrival="271.00" arrivalLane="end_1" arrivalPos="200.00" arrivalSpeed="13.39" duration="125.00" routeLength="494.90" waitSteps="59" timeLoss="90.81" rerouteNo="0" devices="tripinfo_mixed.92" vType="car" vaporized=""/>
    <tripinfo id="mixed.53" depart="83.00" departLane="beg_0" departPos="2.20" departSpeed="0.00" departDelay="30.00" arrival="272.00" arrivalLane="end_0" arrivalPos="200.00" arrivalSpeed="9.00" duration="189.00" routeLength="497.80" waitSteps="92" timeLoss="138.34" rerouteNo="0" devices="tripinfo_mixed.53" vType="moped" vaporized=""/>
    <tripinfo id="mixed.83" depart="130.00" departLane="beg_1" departPos="2.20" departSpeed="0.00" departDelay="47.00" arrival="273.00" arrivalLane="end_0" arrivalPos="200.00" arrivalSpeed="13.72" duration="143.00" routeLength="497.80" waitSteps="64" timeLoss="109.03" rerouteNo="0" devices="tripinfo_mixed.83" vType="moped" vaporized=""/>
    <tripinfo id="mixed.96" depart="152.00" departLane="beg_1" departPos="5.10" departSpeed="0.00" departDelay="56.00" arrival="273.00" arrivalLane="end_1" arrivalPos="200.00" arrivalSpeed="16.07" duration="121.00" routeLength="494.90" waitSteps="54" timeLoss="91.62" rerouteNo="0" devices="tripinfo_mixed.96" vType="car" vaporized=""/>
    <tripinfo id="mixed.85" depart="133.00" departLane="beg_1" departPos="2.20" departSpeed="0.00" departDelay="48.00" arrival="274.00" arrivalLane="end_0" arrivalPos="200.00" arrivalSpeed="12.04" duration="141.00" routeLength="497.80" waitSteps="60" timeLoss="99.80" rerouteNo="0" devices="tripinfo_mixed.85" vType="moped" vaporized=""/>
    <tripinfo id="mixed.77" depart="122.00" departLane="beg_1" departPos="2.20" departSpeed="0.00" departDelay="45.00" arrival="275.00" arrivalLane="end_0" arrivalPos="200.00" arrivalSpeed="13.21" duration="153.00" routeLength="497.80" waitSteps="73" timeLoss="122.92" rerouteNo="0" devices="tripinfo_mixed.77" vType="moped" vaporized=""/>
    <tripinfo id="mixed.89" depart="142.00" departLane="beg_1" departPos="2.20" departSpeed="0.00" departDelay="53.00" arrival="275.00" arrivalLane="end_1" arrivalPos="200.00" arrivalSpeed="12.45" duration="133.00" routeLength="497.80" waitSteps="57" timeLoss="93.14" rerouteNo="0" devices="tripinfo_mixed.89" vType="moped" vaporized=""/>
    <tripinfo id="mixed.80" depart="129.00" departLane="beg_0" departPos="2.20" departSpeed="0.00" departDelay="49.00" arrival="275.00" arrivalLane="end_1" arrivalPos="200.00" arrivalSpeed="12.68" duration="146.00" routeLength="497.80" waitSteps="68" timeLoss="115.87" rerouteNo="0" devices="tripinfo_mixed.80" vType="moped" vaporized=""/>
    <tripinfo id="mixed.29" depart="46.00" departLane="beg_0" departPos="2.20" departSpeed="0.00" departDelay="17.00" arrival="277.00" arrivalLane="end_0" arrivalPos="200.00" arrivalSpeed="4.24" duration="231.00" routeLength="497.80" waitSteps="107" timeLoss="125.33" rerouteNo="0" devices="tripinfo_mixed.29" vType="moped" vaporized=""/>
    <tripinfo id="mixed.74" depart="117.00" departLane="beg_0" departPos="2.20" departSpeed="0.00" departDelay="43.00" arrival="277.00" arrivalLane="end_0" arrivalPos="200.00" arrivalSpeed="11.89" duration="160.00" routeLength="497.80" waitSteps="80" timeLoss="118.36" rerouteNo="0" devices="tripinfo_mixed.74" vType="moped" vaporized=""/>
    <tripinfo id="mixed.98" depart="155.00" departLane="beg_1" departPos="5.10" departSpeed="0.00" departDelay="57.00" arrival="277.00" arrivalLane="end_1" arrivalPos="200.00" arrivalSpeed="14.57" duration="122.00" routeLength="494.90" waitSteps="54" timeLoss="88.00" rerouteNo="0" devices="tripinfo_mixed.98" vType="car" vaporized=""/>
    <tripinfo id="mixed.42" depart="63.00" departLane="beg_0" departPos="2.20" departSpeed="0.00" departDelay="21.00" arrival="279.00" arrivalLane="end_0" arrivalPos="200.00" arrivalSpeed="6.22" duration="216.00" routeLength="497.80" waitSteps="106" timeLoss="155.32" rerouteNo="0" devices="tripinfo_mixed.42" vType="moped" vaporized=""/>
    <tripinfo id="mixed.95" depart="149.00" departLane="beg_1" departPos="5.10" departSpeed="0.00" departDelay="54.00" arrival="279.00" arrivalLane="end_1" arrivalPos="200.00" arrivalSpeed="12.78" duration="130.00" routeLength="494.90" waitSteps="57" timeLoss="93.86" rerouteNo="0" devices="tripinfo_mixed.95" vType="car" vaporized=""/>