<?xml version="1.0" encoding="UTF-8"?>

<!-- generated on Tue Feb  2 12:37:42 2016 by SUMO Version dev-SVN-r19829
<?xml version="1.0" encoding="UTF-8"?>

<configuration xmlns:xsi="http://www.w3.org/2001/XMLSchema-instance" xsi:noNamespaceSchemaLocation="http://sumo.dlr.de/xsd/sumoConfiguration.xsd">

    <input>
        <net-file value="net.net.xml"/>
        <route-files value="input_routes.rou.xml"/>
    </input>

    <output>
        <tripinfo-output value="tripinfos.xml"/>
    </output>

    <processing>
        <lateral-resolution value="0.64"/>
    </processing>

    <report>
        <xml-validation value="never"/>
        <no-step-log value="true"/>
    </report>

</configuration>
-->

<tripinfos xmlns:xsi="http://www.w3.org/2001/XMLSchema-instance" xsi:noNamespaceSchemaLocation="http://sumo.dlr.de/xsd/tripinfo_file.xsd">
    <tripinfo id="mixed.5" depart="6.00" departLane="beg_0" departPos="5.10" departSpeed="0.00" departDelay="1.00" arrival="217.00" arrivalLane="end_0" arrivalPos="200.00" arrivalSpeed="13.40" duration="211.00" routeLength="494.90" waitSteps="161" timeLoss="175.96" rerouteNo="0" devices="tripinfo_mixed.5" vType="car" vaporized=""/>
    <tripinfo id="mixed.6" depart="7.00" departLane="beg_1" departPos="2.20" departSpeed="0.00" departDelay="1.00" arrival="221.00" arrivalLane="end_0" arrivalPos="200.00" arrivalSpeed="16.42" duration="214.00" routeLength="497.80" waitSteps="163" timeLoss="183.98" rerouteNo="0" devices="tripinfo_mixed.6" vType="moped" vaporized=""/>
    <tripinfo id="mixed.3" depart="4.00" departLane="beg_1" departPos="2.20" departSpeed="0.00" departDelay="1.00" arrival="222.00" arrivalLane="end_0" arrivalPos="200.00" arrivalSpeed="13.42" duration="218.00" routeLength="497.80" waitSteps="164" timeLoss="181.41" rerouteNo="0" devices="tripinfo_mixed.3" vType="moped" vaporized=""/>
    <tripinfo id="mixed.11" depart="17.00" departLane="beg_0" departPos="5.10" departSpeed="0.00" departDelay="6.00" arrival="223.00" arrivalLane="end_1" arrivalPos="200.00" arrivalSpeed="13.82" duration="206.00" routeLength="494.90" waitSteps="154" timeLoss="172.69" rerouteNo="0" devices="tripinfo_mixed.11" vType="car" vaporized=""/>
    <tripinfo id="mixed.0" depart="0.00" departLane="beg_0" departPos="2.20" departSpeed="0.00" departDelay="0.00" arrival="225.00" arrivalLane="end_0" arrivalPos="200.00" arrivalSpeed="10.34" duration="225.00" routeLength="497.80" waitSteps="162" timeLoss="176.65" rerouteNo="0" devices="tripinfo_mixed.0" vType="moped" vaporized=""/>
    <tripinfo id="mixed.14" depart="20.00" departLane="beg_1" departPos="2.20" departSpeed="0.00" departDelay="6.00" arrival="225.00" arrivalLane="end_1" arrivalPos="200.00" arrivalSpeed="14.13" duration="205.00" routeLength="497.80" waitSteps="149" timeLoss="170.50" rerouteNo="0" devices="tripinfo_mixed.14" vType="moped" vaporized=""/>
    <tripinfo id="mixed.8" depart="10.00" departLane="beg_0" departPos="5.10" departSpeed="0.00" departDelay="2.00" arrival="227.00" arrivalLane="end_0" arrivalPos="200.00" arrivalSpeed="13.41" duration="217.00" routeLength="494.90" waitSteps="161" timeLoss="187.66" rerouteNo="0" devices="tripinfo_mixed.8" vType="car" vaporized=""/>
    <tripinfo id="mixed.9" depart="13.00" departLane="beg_0" departPos="5.10" departSpeed="0.00" departDelay="4.00" arrival="227.00" arrivalLane="end_0" arrivalPos="200.00" arrivalSpeed="11.12" duration="214.00" routeLength="494.90" waitSteps="154" timeLoss="168.65" rerouteNo="0" devices="tripinfo_mixed.9" vType="car" vaporized=""/>
    <tripinfo id="mixed.15" depart="23.00" departLane="beg_0" departPos="2.20" departSpeed="0.00" departDelay="8.00" arrival="228.00" arrivalLane="end_0" arrivalPos="200.00" arrivalSpeed="11.79" duration="205.00" routeLength="497.80" waitSteps="148" timeLoss="172.75" rerouteNo="0" devices="tripinfo_mixed.15" vType="moped" vaporized=""/>
    <tripinfo id="mixed.13" depart="20.00" departLane="beg_0" departPos="2.20" departSpeed="0.00" departDelay="7.00" arrival="228.00" arrivalLane="end_1" arrivalPos="200.00" arrivalSpeed="16.40" duration="208.00" routeLength="497.80" waitSteps="144" timeLoss="177.44" rerouteNo="0" devices="tripinfo_mixed.13" vType="moped" vaporized=""/>
    <tripinfo id="mixed.12" depart="19.00" departLane="beg_1" departPos="2.20" departSpeed="0.00" departDelay="7.00" arrival="229.00" arrivalLane="end_0" arrivalPos="200.00" arrivalSpeed="9.86" duration="210.00" routeLength="497.80" waitSteps="146" timeLoss="161.53" rerouteNo="0" devices="tripinfo_mixed.12" vType="moped" vaporized=""/>
    <tripinfo id="mixed.23" depart="38.00" departLane="beg_1" departPos="2.20" departSpeed="0.00" departDelay="15.00" arrival="229.00" arrivalLane="end_1" arrivalPos="200.00" arrivalSpeed="16.52" duration="191.00" routeLength="497.80" waitSteps="135" timeLoss="160.81" rerouteNo="0" devices="tripinfo_mixed.23" vType="moped" vaporized=""/>
    <tripinfo id="mixed.7" depart="9.00" departLane="beg_1" departPos="2.20" departSpeed="0.00" departDelay="2.00" arrival="230.00" arrivalLane="end_0" arrivalPos="200.00" arrivalSpeed="9.52" duration="221.00" routeLength="497.80" waitSteps="153" timeLoss="168.86" rerouteNo="0" devices="tripinfo_mixed.7" vType="moped" vaporized=""/>
    <tripinfo id="mixed.10" depart="13.00" departLane="beg_1" departPos="2.20" departSpeed="0.00" departDelay="3.00" arrival="230.00" arrivalLane="end_1" arrivalPos="200.00" arrivalSpeed="9.47" duration="217.00" routeLength="497.80" waitSteps="147" timeLoss="165.96" rerouteNo="0" devices="tripinfo_mixed.10" vType="moped" vaporized=""/>
    <tripinfo id="mixed.24" depart="38.00" departLane="beg_0" departPos="2.20" departSpeed="0.00" departDelay="14.00" arrival="232.00" arrivalLane="end_1" arrivalPos="200.00" arrivalSpeed="13.34" duration="194.00" routeLength="497.80" waitSteps="135" timeLoss="157.00" rerouteNo="0" devices="tripinfo_mixed.24" vType="moped" vaporized=""/>
    <tripinfo id="mixed.17" depart="28.00" departLane="beg_1" departPos="5.10" departSpeed="0.00" departDelay="11.00" arrival="232.00" arrivalLane="end_1" arrivalPos="200.00" arrivalSpeed="11.83" duration="204.00" routeLength="494.90" waitSteps="146" timeLoss="168.50" rerouteNo="0" devices="tripinfo_mixed.17" vType="car" vaporized=""/>
    <tripinfo id="mixed.18" depart="30.00" departLane="beg_0" departPos="5.10" departSpeed="0.00" departDelay="12.00" arrival="233.00" arrivalLane="end_0" arrivalPos="200.00" arrivalSpeed="10.13" duration="203.00" routeLength="494.90" waitSteps="141" timeLoss="154.69" rerouteNo="0" devices="tripinfo_mixed.18" vType="car" vaporized=""/>
    <tripinfo id="mixed.28" depart="42.00" departLane="beg_0" departPos="2.20" departSpeed="0.00" departDelay="14.00" arrival="233.00" arrivalLane="end_1" arrivalPos="200.00" arrivalSpeed="14.26" duration="191.00" routeLength="497.80" waitSteps="134" timeLoss="161.04" rerouteNo="0" devices="tripinfo_mixed.28" vType="moped" vaporized=""/>
    <tripinfo id="mixed.19" depart="33.00" departLane="beg_1" departPos="5.10" departSpeed="0.00" departDelay="14.00" arrival="234.00" arrivalLane="end_0" arrivalPos="200.00" arrivalSpeed="14.33" duration="201.00" routeLength="494.90" waitSteps="142" timeLoss="166.67" rerouteNo="0" devices="tripinfo_mixed.19" vType="car" vaporized=""/>
    <tripinfo id="mixed.22" depart="36.00" departLane="beg_1" departPos="2.20" departSpeed="0.00" departDelay="14.00" arrival="235.00" arrivalLane="end_0" arrivalPos="200.00" arrivalSpeed="11.91" duration="199.00" routeLength="497.80" waitSteps="140" timeLoss="168.51" rerouteNo="0" devices="tripinfo_mixed.22" vType="moped" vaporized=""/>
    <tripinfo id="mixed.20" depart="33.00" departLane="beg_0" departPos="5.10" departSpeed="0.00" departDelay="13.00" arrival="235.00" arrivalLane="end_1" arrivalPos="200.00" arrivalSpeed="14.40" duration="202.00" routeLength="494.90" waitSteps="142" timeLoss="173.63" rerouteNo="0" devices="tripinfo_mixed.20" vType="car" vaporized=""/>
    <tripinfo id="mixed.25" depart="40.00" departLane="beg_0" departPos="5.10" departSpeed="0.00" departDelay="15.00" arrival="236.00" arrivalLane="end_1" arrivalPos="200.00" arrivalSpeed="12.96" duration="196.00" routeLength="494.90" waitSteps="139" timeLoss="157.12" rerouteNo="0" devices="tripinfo_mixed.25" vType="car" vaporized=""/>
    <tripinfo id="mixed.30" depart="45.00" departLane="beg_1" departPos="2.20" departSpeed="0.00" departDelay="15.00" arrival="237.00" arrivalLane="end_0" arrivalPos="200.00" arrivalSpeed="15.14" duration="192.00" routeLength="497.80" waitSteps="135" timeLoss="159.49" rerouteNo="0" devices="tripinfo_mixed.30" vType="moped" vaporized=""/>
    <tripinfo id="mixed.32" depart="50.00" departLane="beg_1" departPos="5.10" departSpeed="0.00" departDelay="18.00" arrival="237.00" arrivalLane="end_1" arrivalPos="200.00" arrivalSpeed="14.72" duration="187.00" routeLength="494.90" waitSteps="132" timeLoss="153.51" rerouteNo="0" devices="tripinfo_mixed.32" vType="car" vaporized=""/>
    <tripinfo id="mixed.4" depart="4.00" departLane="beg_0" departPos="2.20" departSpeed="0.00" departDelay="0.00" arrival="238.00" arrivalLane="end_0" arrivalPos="200.00" arrivalSpeed="7.50" duration="234.00" routeLength="497.80" waitSteps="152" timeLoss="167.24" rerouteNo="0" devices="tripinfo_mixed.4" vType="moped" vaporized=""/>
    <tripinfo id="mixed.35" depart="55.00" departLane="beg_0" departPos="2.20" departSpeed="0.00" departDelay="20.00" arrival="239.00" arrivalLane="end_0" arrivalPos="200.00" arrivalSpeed="15.00" duration="184.00" routeLength="497.80" waitSteps="126" timeLoss="150.03" rerouteNo="0" devices="tripinfo_mixed.35" vType="moped" vaporized=""/>
    <tripinfo id="mixed.21" depart="36.00" departLane="beg_0" departPos="5.10" departSpeed="0.00" departDelay="15.00" arrival="239.00" arrivalLane="end_0" arrivalPos="200.00" arrivalSpeed="10.33" duration="203.00" routeLength="494.90" waitSteps="138" timeLoss="157.62" rerouteNo="0" devices="tripinfo_mixed.21" vType="car" vaporized=""/>
    <tripinfo id="mixed.39" depart="61.00" departLane="beg_1" departPos="2.20" departSpeed="0.00" departDelay="22.00" arrival="239.00" arrivalLane="end_1" arrivalPos="200.00" arrivalSpeed="15.97" duration="178.00" routeLength="497.80" waitSteps="117" timeLoss="147.19" rerouteNo="0" devices="tripinfo_mixed.39" vType="moped" vaporized=""/>
    <tripinfo id="mixed.46" depart="72.00" departLane="beg_0" departPos="2.20" departSpeed="0.00" departDelay="26.00" arrival="240.00" arrivalLane="end_1" arrivalPos="200.00" arrivalSpeed="15.49" duration="168.00" routeLength="497.80" waitSteps="112" timeLoss="137.76" rerouteNo="0" devices="tripinfo_mixed.46" vType="moped" vaporized=""/>
    <tripinfo id="mixed.37" depart="57.00" departLane="beg_0" departPos="2.20" departSpeed="0.00" departDelay="20.00" arrival="241.00" arrivalLane="end_0" arrivalPos="200.00" arrivalSpeed="10.77" duration="184.00" routeLength="497.80" waitSteps="118" timeLoss="153.86" rerouteNo="0" devices="tripinfo_mixed.37" vType="moped" vaporized=""/>
    <tripinfo id="mixed.41" depart="63.00" departLane="beg_1" departPos="2.20" departSpeed="0.00" departDelay="22.00" arrival="241.00" arrivalLane="end_0" arrivalPos="200.00" arrivalSpeed="15.11" duration="178.00" routeLength="497.80" waitSteps="118" timeLoss="147.71" rerouteNo="0" devices="tripinfo_mixed.41" vType="moped" vaporized=""/>
    <tripinfo id="mixed.26" depart="40.00" departLane="beg_1" departPos="2.20" departSpeed="0.00" departDelay="14.00" arrival="241.00" arrivalLane="end_1" arrivalPos="200.00" arrivalSpeed="10.52" duration="201.00" routeLength="497.80" waitSteps="136" timeLoss="167.35" rerouteNo="0" devices="tripinfo_mixed.26" vType="moped" vaporized=""/>
    <tripinfo id="mixed.43" depart="67.00" departLane="beg_1" departPos="2.20" departSpeed="0.00" departDelay="24.00" arrival="242.00" arrivalLane="end_0" arrivalPos="200.00" arrivalSpeed="11.48" duration="175.00" routeLength="497.80" waitSteps="112" timeLoss="131.63" rerouteNo="0" devices="tripinfo_mixed.43" vType="moped" vaporized=""/>
    <tripinfo id="mixed.45" depart="72.00" departLane="beg_1" departPos="5.10" departSpeed="0.00" departDelay="27.00" arrival="243.00" arrivalLane="end_1" arrivalPos="200.00" arrivalSpeed="13.24" duration="171.00" routeLength="494.90" waitSteps="112" timeLoss="134.56" rerouteNo="0" devices="tripinfo_mixed.45" vType="car" vaporized=""/>
    <tripinfo id="mixed.27" depart="42.00" departLane="beg_1" departPos="2.20" departSpeed="0.00" departDelay="15.00" arrival="244.00" arrivalLane="end_0" arrivalPos="200.00" arrivalSpeed="10.03" duration="202.00" routeLength="497.80" waitSteps="131" timeLoss="154.41" rerouteNo="0" devices="tripinfo_mixed.27" vType="moped" vaporized=""/>
    <tripinfo id="mixed.52" depart="81.00" departLane="beg_1" departPos="5.10" departSpeed="0.00" departDelay="29.00" arrival="245.00" arrivalLane="end_1" arrivalPos="200.00" arrivalSpeed="14.38" duration="164.00" routeLength="494.90" waitSteps="105" timeLoss="128.88" rerouteNo="0" devices="tripinfo_mixed.52" vType="car" vaporized=""/>
    <tripinfo id="mixed.38" depart="60.00" departLane="beg_0" departPos="2.20" departSpeed="0.00" departDelay="22.00" arrival="246.00" arrivalLane="end_0" arrivalPos="200.00" arrivalSpeed="8.83" duration="186.00" routeLength="497.80" waitSteps="121" timeLoss="155.64" rerouteNo="0" devices="tripinfo_mixed.38" vType="moped" vaporized=""/>
    <tripinfo id="mixed.44" depart="69.00" departLane="beg_0" departPos="5.10" departSpeed="0.00" departDelay="25.00" arrival="247.00" arrivalLane="end_0" arrivalPos="200.00" arrivalSpeed="13.62" duration="178.00" routeLength="494.90" waitSteps="116" timeLoss="143.48" rerouteNo="0" devices="tripinfo_mixed.44" vType="car" vaporized=""/>
    <tripinfo id="mixed.48" depart="76.00" departLane="beg_1" departPos="2.20" departSpeed="0.00" departDelay="28.00" arrival="249.00" arrivalLane="end_0" arrivalPos="200.00" arrivalSpeed="13.04" duration="173.00" routeLength="497.80" waitSteps="109" timeLoss="134.46" rerouteNo="0" devices="tripinfo_mixed.48" vType="moped" vaporized=""/>
    <tripinfo id="mixed.53" depart="82.00" departLane="beg_1" departPos="2.20" departSpeed="0.00" departDelay="29.00" arrival="251.00" arrivalLane="end_1" arrivalPos="200.00" arrivalSpeed="9.82" duration="169.00" routeLength="497.80" waitSteps="101" timeLoss="117.65" rerouteNo="0" devices="tripinfo_mixed.53" vType="moped" vaporized=""/>
    <tripinfo id="mixed.16" depart="23.00" departLane="beg_1" departPos="2.20" departSpeed="0.00" departDelay="7.00" arrival="251.00" arrivalLane="end_1" arrivalPos="200.00" arrivalSpeed="7.63" duration="228.00" routeLength="497.80" waitSteps="135" timeLoss="163.32" rerouteNo="0" devices="tripinfo_mixed.16" vType="moped" vaporized=""/>
    <tripinfo id="mixed.31" depart="46.00" departLane="beg_0" departPos="2.20" departSpeed="0.00" departDelay="15.00" arrival="252.00" arrivalLane="end_0" arrivalPos="200.00" arrivalSpeed="13.54" duration="206.00" routeLength="497.80" waitSteps="130" timeLoss="175.42" rerouteNo="0" devices="tripinfo_mixed.31" vType="moped" vaporized=""/>
    <tripinfo id="mixed.55" depart="86.00" departLane="beg_1" departPos="5.10" departSpeed="0.00" departDelay="31.00" arrival="252.00" arrivalLane="end_1" arrivalPos="200.00" arrivalSpeed="10.81" duration="166.00" routeLength="494.90" waitSteps="98" timeLoss="137.01" rerouteNo="0" devices="tripinfo_mixed.55" vType="car" vaporized=""/>
    <tripinfo id="mixed.40" depart="62.00" departLane="beg_0" departPos="2.20" departSpeed="0.00" departDelay="22.00" arrival="253.00" arrivalLane="end_1" arrivalPos="200.00" arrivalSpeed="8.90" duration="191.00" routeLength="497.80" waitSteps="115" timeLoss="154.90" rerouteNo="0" devices="tripinfo_mixed.40" vType="moped" vaporized=""/>
    <tripinfo id="mixed.1" depart="1.00" departLane="beg_1" departPos="2.20" departSpeed="0.00" departDelay="0.00" arrival="254.00" arrivalLane="end_0" arrivalPos="200.00" arrivalSpeed="4.49" duration="253.00" routeLength="497.80" waitSteps="142" timeLoss="152.39" rerouteNo="0" devices="tripinfo_mixed.1" vType="moped" vaporized=""/>
    <tripinfo id="mixed.64" depart="100.00" departLane="beg_1" departPos="5.10" departSpeed="0.00" departDelay="36.00" arrival="254.00" arrivalLane="end_0" arrivalPos="200.00" arrivalSpeed="12.98" duration="154.00" routeLength="494.90" waitSteps="89" timeLoss="118.48" rerouteNo="0" devices="tripinfo_mixed.64" vType="car" vaporized=""/>
    <tripinfo id="mixed.49" depart="76.00" departLane="beg_0" departPos="2.20" departSpeed="0.00" departDelay="27.00" arrival="254.00" arrivalLane="end_1" arrivalPos="200.00" arrivalSpeed="9.19" duration="178.00" routeLength="497.80" waitSteps="98" timeLoss="134.85" rerouteNo="0" devices="tripinfo_mixed.49" vType="moped" vaporized=""/>
    <tripinfo id="mixed.58" depart="90.00" departLane="beg_1" departPos="5.10" departSpeed="0.00" departDelay="32.00" arrival="255.00" arrivalLane="end_1" arrivalPos="200.00" arrivalSpeed="15.72" duration="165.00" routeLength="494.90" waitSteps="97" timeLoss="134.16" rerouteNo="0" devices="tripinfo_mixed.58" vType="car" vaporized=""/>
    <tripinfo id="mixed.57" depart="89.00" departLane="beg_0" departPos="2.20" departSpeed="0.00" departDelay="32.00" arrival="256.00" arrivalLane="end_1" arrivalPos="200.00" arrivalSpeed="8.94" duration="167.00" routeLength="497.80" waitSteps="95" timeLoss="112.89" rerouteNo="0" devices="tripinfo_mixed.57" vType="moped" vaporized=""/>
    <tripinfo id="mixed.47" depart="74.00" departLane="beg_0" departPos="2.20" departSpeed="0.00" departDelay="27.00" arrival="257.00" arrivalLane="end_0" arrivalPos="200.00" arrivalSpeed="12.02" duration="183.00" routeLength="497.80" waitSteps="109" timeLoss="145.97" rerouteNo="0" devices="tripinfo_mixed.47" vType="moped" vaporized=""/>
    <tripinfo id="mixed.67" depart="103.00" departLane="beg_0" departPos="2.20" departSpeed="0.00" departDelay="36.00" arrival="257.00" arrivalLane="end_1" arrivalPos="200.00" arrivalSpeed="10.45" duration="154.00" routeLength="497.80" waitSteps="86" timeLoss="123.83" rerouteNo="0" devices="tripinfo_mixed.67" vType="moped" vaporized=""/>
    <tripinfo id="mixed.71" depart="112.00" departLane="beg_0" departPos="5.10" departSpeed="0.00" departDelay="41.00" arrival="258.00" arrivalLane="end_1" arrivalPos="200.00" arrivalSpeed="16.01" duration="146.00" routeLength="494.90" waitSteps="85" timeLoss="117.78" rerouteNo="0" devices="tripinfo_mixed.71" vType="car" vaporized=""/>
    <tripinfo id="mixed.56" depart="86.00" departLane="beg_0" departPos="5.10" departSpeed="0.00" departDelay="30.00" arrival="260.00" arrivalLane="end_0" arrivalPos="200.00" arrivalSpeed="13.62" duration="174.00" routeLength="494.90" waitSteps="98" timeLoss="140.19" rerouteNo="0" devices="tripinfo_mixed.56" vType="car" vaporized=""/>
    <tripinfo id="mixed.2" depart="2.00" departLane="beg_0" departPos="2.20" departSpeed="0.00" departDelay="0.00" arrival="261.00" arrivalLane="end_0" arrivalPos="200.00" arrivalSpeed="4.36" duration="259.00" routeLength="497.80" waitSteps="135" timeLoss="148.34" rerouteNo="0" devices="tripinfo_mixed.2" vType="moped" vaporized=""/>
    <tripinfo id="mixed.69" depart="108.00" departLane="beg_1" departPos="5.10" departSpeed="0.00" departDelay="39.00" arrival="262.00" arrivalLane="end_1" arrivalPos="200.00" arrivalSpeed="9.88" duration="154.00" routeLength="494.90" waitSteps="83" timeLoss="104.01" rerouteNo="0" devices="tripinfo_mixed.69" vType="car" vaporized=""/>
    <tripinfo id="mixed.60" depart="93.00" departLane="beg_0" departPos="5.10" departSpeed="0.00" departDelay="33.00" arrival="262.00" arrivalLane="end_1" arrivalPos="200.00" arrivalSpeed="13.53" duration="169.00" routeLength="494.90" waitSteps="98" timeLoss="134.13" rerouteNo="0" devices="tripinfo_mixed.60" vType="car" vaporized=""/>
    <tripinfo id="mixed.34" depart="54.00" departLane="beg_1" departPos="5.10" departSpeed="0.00" departDelay="20.00" arrival="263.00" arrivalLane="end_0" arrivalPos="200.00" arrivalSpeed="9.45" duration="209.00" routeLength="494.90" waitSteps="126" timeLoss="163.69" rerouteNo="0" devices="tripinfo_mixed.34" vType="car" vaporized=""/>
    <tripinfo id="mixed.77" depart="117.00" departLane="beg_0" departPos="2.20" departSpeed="0.00" departDelay="40.00" arrival="264.00" arrivalLane="end_1" arrivalPos="200.00" arrivalSpeed="11.00" duration="147.00" routeLength="497.80" waitSteps="66" timeLoss="116.52" rerouteNo="0" devices="tripinfo_mixed.77" vType="moped" vaporized=""/>
    <tripinfo id="mixed.75" depart="117.00" departLane="beg_1" departPos="5.10" departSpeed="0.00" departDelay="42.00" arrival="264.00" arrivalLane="end_1" arrivalPos="200.00" arrivalSpeed="12.43" duration="147.00" routeLength="494.90" waitSteps="82" timeLoss="106.78" rerouteNo="0" devices="tripinfo_mixed.75" vType="car" vaporized=""/>
    <tripinfo id="mixed.51" depart="77.00" departLane="beg_0" departPos="2.20" departSpeed="0.00" departDelay="26.00" arrival="265.00" arrivalLane="end_0" arrivalPos="200.00" arrivalSpeed="7.38" duration="188.00" routeLength="497.80" waitSteps="107" timeLoss="142.40" rerouteNo="0" devices="tripinfo_mixed.51" vType="moped" vaporized=""/>
    <tripinfo id="mixed.83" depart="129.00" departLane="beg_1" departPos="2.20" departSpeed="0.00" departDelay="46.00" arrival="265.00" arrivalLane="end_1" arrivalPos="200.00" arrivalSpeed="10.91" duration="136.00" routeLength="497.80" waitSteps="61" timeLoss="102.70" rerouteNo="0" devices="tripinfo_mixed.83" vType="moped" vaporized=""/>
    <tripinfo id="mixed.50" depart="77.00" departLane="beg_1" departPos="2.20" departSpeed="0.00" departDelay="27.00" arrival="266.00" arrivalLane="end_0" arrivalPos="200.00" arrivalSpeed="7.55" duration="189.00" routeLength="497.80" waitSteps="99" timeLoss="131.03" rerouteNo="0" devices="tripinfo_mixed.50" vType="moped" vaporized=""/>
    <tripinfo id="mixed.79" depart="122.00" departLane="beg_1" departPos="5.10" departSpeed="0.00" departDelay="43.00" arrival="266.00" arrivalLane="end_1" arrivalPos="200.00" arrivalSpeed="12.10" duration="144.00" routeLength="494.90" waitSteps="78" timeLoss="105.97" rerouteNo="0" devices="tripinfo_mixed.79" vType="car" vaporized=""/>
    <tripinfo id="mixed.42" depart="65.00" departLane="beg_0" departPos="2.20" departSpeed="0.00" departDelay="23.00" arrival="267.00" arrivalLane="end_0" arrivalPos="200.00" arrivalSpeed="8.18" duration="202.00" routeLength="497.80" waitSteps="108" timeLoss="140.99" rerouteNo="0" devices="tripinfo_mixed.42" vType="moped" vaporized=""/>
    <tripinfo id="mixed.68" depart="104.00" departLane="beg_0" departPos="2.20" departSpeed="0.00" departDelay="36.00" arrival="267.00" arrivalLane="end_0" arrivalPos="200.00" arrivalSpeed="7.39" duration="163.00" routeLength="497.80" waitSteps="93" timeLoss="132.93" rerouteNo="0" devices="tripinfo_mixed.68" vType="moped" vaporized=""/>
    <tripinfo id="mixed.88" depart="138.00" departLane="beg_1" departPos="5.10" departSpeed="0.00" departDelay="50.00" arrival="267.00" arrivalLane="end_1" arrivalPos="200.00" arrivalSpeed="12.66" duration="129.00" routeLength="494.90" waitSteps="63" timeLoss="92.10" rerouteNo="0" devices="tripinfo_mixed.88" vType="car" vaporized=""/>
    <tripinfo id="mixed.92" depart="144.00" departLane="beg_1" departPos="5.10" departSpeed="0.00" departDelay="52.00" arrival="268.00" arrivalLane="end_1" arrivalPos="200.00" arrivalSpeed="13.60" duration="124.00" routeLength="494.90" waitSteps="62" timeLoss="88.95" rerouteNo="0" devices="tripinfo_mixed.92" vType="car" vaporized=""/>
    <tripinfo id="mixed.97" depart="153.00" departLane="beg_1" departPos="2.20" departSpeed="0.00" departDelay="56.00" arrival="269.00" arrivalLane="end_1" arrivalPos="200.00" arrivalSpeed="12.38" duration="116.00" routeLength="497.80" waitSteps="53" timeLoss="85.51" rerouteNo="0" devices="tripinfo_mixed.97" vType="moped" vaporized=""/>
    <tripinfo id="mixed.36" depart="56.00" departLane="beg_1" departPos="2.20" departSpeed="0.00" departDelay="20.00" arrival="270.00" arrivalLane="end_0" arrivalPos="200.00" arrivalSpeed="7.01" duration="214.00" routeLength="497.80" waitSteps="113" timeLoss="142.53" rerouteNo="0" devices="tripinfo_mixed.36" vType="moped" vaporized=""/>
    <tripinfo id="mixed.94" depart="147.00" departLane="beg_0" departPos="2.20" departSpeed="0.00" departDelay="53.00" arrival="270.00" arrivalLane="end_0" arrivalPos="200.00" arrivalSpeed="13.90" duration="123.00" routeLength="497.80" waitSteps="56" timeLoss="90.53" rerouteNo="0" devices="tripinfo_mixed.94" vType="moped" vaporized=""/>
    <tripinfo id="mixed.98" depart="155.00" departLane="beg_0" departPos="5.10" departSpeed="0.00" departDelay="57.00" arrival="271.00" arrivalLane="end_1" arrivalPos="200.00" arrivalSpeed="13.52" duration="116.00" routeLength="494.90" waitSteps="54" timeLoss="81.63" rerouteNo="0" devices="tripinfo_mixed.98" vType="car" vaporized=""/>
    <tripinfo id="mixed.54" depart="84.00" departLane="beg_0" departPos="5.10" departSpeed="0.00" departDelay="30.00" arrival="272.00" arrivalLane="end_0" arrivalPos="200.00" arrivalSpeed="13.64" duration="188.00" routeLength="494.90" waitSteps="96" timeLoss="155.04" rerouteNo="0" devices="tripinfo_mixed.54" vType="car" vaporized=""/>
    <tripinfo id="mixed.95" depart="149.00" departLane="beg_1" departPos="5.10" departSpeed="0.00" departDelay="54.00" arrival="272.00" arrivalLane="end_1" arrivalPos="200.00" arrivalSpeed="13.66" duration="123.00" routeLength="494.90" waitSteps="61" timeLoss="87.36" rerouteNo="0" devices="tripinfo_mixed.95" vType="car" vaporized=""/>
    <tripinfo id="mixed.29" depart="42.00" departLane="beg_0" departPos="2.20" departSpeed="0.00" departDelay="13.00" arrival="274.00" arrivalLane="end_0" arrivalPos="200.00" arrivalSpeed="4.19" duration="232.00" routeLength="497.80" waitSteps="110" timeLoss="125.55" rerouteNo="0" devices="tripinfo_mixed.29" vType="moped" vaporized=""/>
    <tripinfo id="mixed.72" depart="113.00" departLane="beg_1" departPos="2.20" departSpeed="0.00" departDelay="41.00" arrival="274.00" arrivalLane="end_0" arrivalPos="200.00" arrivalSpeed="9.79" duration="161.00" routeLength="497.80" waitSteps="77" timeLoss="130.84" rerouteNo="0" devices="tripinfo_mixed.72" vType="moped" vaporized=""/>
    <tripinfo id="mixed.62" depart="96.00" departLane="beg_0" departPos="2.20" departSpeed="0.00" departDelay="34.00" arrival="274.00" arrivalLane="end_0" arrivalPos="200.00" arrivalSpeed="9.90" duration="178.00" routeLength="497.80" waitSteps="93" timeLoss="138.10" rerouteNo="0" devices="tripinfo_mixed.62" vType="moped" vaporized=""/>
    <tripinfo id="mixed.87" depart="134.00" departLane="beg_1" departPos="2.20" departSpeed="0.00" departDelay="47.00" arrival="274.00" arrivalLane="end_1" arrivalPos="200.00" arrivalSpeed="13.70" duration="140.00" routeLength="497.80" waitSteps="66" timeLoss="109.65" rerouteNo="0" devices="tripinfo_mixed.87" vType="moped" vaporized=""/>
    <tripinfo id="mixed.59" depart="92.00" departLane="beg_1" departPos="2.20" departSpeed="0.00" departDelay="33.00" arrival="275.00" arrivalLane="end_0" arrivalPos="200.00" arrivalSpeed="5.96" duration="183.00" routeLength="497.80" waitSteps="89" timeLoss="122.05" rerouteNo="0" devices="tripinfo_mixed.59" vType="moped" vaporized=""/>
    <tripinfo id="mixed.85" depart="133.00" departLane="beg_1" departPos="2.20" departSpeed="0.00" departDelay="48.00" arrival="275.00" arrivalLane="end_1" arrivalPos="200.00" arrivalSpeed="11.97" duration="142.00" routeLength="497.80" waitSteps="71" timeLoss="100.89" rerouteNo="0" devices="tripinfo_mixed.85" vType="moped" vaporized=""/>
    <tripinfo id="mixed.63" depart="97.00" departLane="beg_0" departPos="2.20" departSpeed="0.00" departDelay="34.00" arrival="276.00" arrivalLane="end_0" arrivalPos="200.00" arrivalSpeed="10.60" duration="179.00" routeLength="497.80" waitSteps="91" timeLoss="139.42" rerouteNo="0" devices="tripinfo_mixed.63" vType="moped" vaporized=""/>
    <tripinfo id="mixed.96" depart="152.00" departLane="beg_0" departPos="5.10" departSpeed="0.00" departDelay="56.00" arrival="276.00" arrivalLane="end_1" arrivalPos="200.00" arrivalSpeed="14.50" duration="124.00" routeLength="494.90" waitSteps="57" timeLoss="94.76" rerouteNo="0" devices="tripinfo_mixed.96" vType="car" vaporized=""/>
    <tripinfo id="mixed.61" depart="95.00" departLane="beg_1" departPos="2.20" departSpeed="0.00" departDelay="34.00" arrival="277.00" arrivalLane="end_0" arrivalPos="200.00" arrivalSpeed="8.22" duration="182.00" routeLength="497.80" waitSteps="99" timeLoss="151.73" rerouteNo="0" devices="tripinfo_mixed.61" vType="moped" vaporized=""/>
    <tripinfo id="mixed.78" depart="122.00" departLane="beg_0" departPos="5.10" departSpeed="0.00" departDelay="44.00" arrival="278.00" arrivalLane="end_0" arrivalPos="200.00" arrivalSpeed="13.65" duration="156.00" routeLength="494.90" waitSteps="74" timeLoss="121.77" rerouteNo="0" devices="tripinfo_mixed.78" vType="car" vaporized=""/>
    <tripinfo id="mixed.76" depart="117.00" departLane="beg_0" departPos="2.20" departSpeed="0.00" departDelay="41.00" arrival="278.00" arrivalLane="end_0" arrivalPos="200.00" arrivalSpeed="8.68" duration="161.00" routeLength="497.80" waitSteps="71" timeLoss="131.00" rerouteNo="0" devices="tripinfo_mixed.76" vType="moped" vaporized=""/>
    <tripinfo id="mixed.65" depart="100.00" departLane="beg_0" departPos="2.20" departSpeed="0.00" departDelay="35.00" arrival="278.00" arrivalLane="end_1" arrivalPos="200.00" arrivalSpeed="10.41" duration="178.00" routeLength="497.80" waitSteps="89" timeLoss="130.83" rerouteNo="0" devices="tripinfo_mixed.65" vType="moped" vaporized=""/>
    <tripinfo id="mixed.91" depart="141.00" departLane="beg_0" departPos="2.20" departSpeed="0.00" departDelay="50.00" arrival="280.00" arrivalLane="end_0" arrivalPos="200.00" arrivalSpeed="12.05" duration="139.00" routeLength="497.80" waitSteps="62" timeLoss="106.44" rerouteNo="0" devices="tripinfo_mixed.91" vType="moped" vaporized=""/>