<?xml version="1.0" encoding="UTF-8"?>

<!-- generated on Wed Feb 17 15:19:24 2016 by SUMO Version dev-SVN-r19996
<?xml version="1.0" encoding="UTF-8"?>

<configuration xmlns:xsi="http://www.w3.org/2001/XMLSchema-instance" xsi:noNamespaceSchemaLocation="http://sumo.dlr.de/xsd/sumoConfiguration.xsd">

    <input>
        <net-file value="net.net.xml"/>
        <route-files value="input_routes.rou.xml"/>
    </input>

    <output>
        <tripinfo-output value="tripinfos.xml"/>
    </output>

    <processing>
        <lateral-resolution value="0.64"/>
    </processing>

    <report>
        <xml-validation value="never"/>
        <no-step-log value="true"/>
    </report>

</configuration>
-->

<tripinfos xmlns:xsi="http://www.w3.org/2001/XMLSchema-instance" xsi:noNamespaceSchemaLocation="http://sumo.dlr.de/xsd/tripinfo_file.xsd">
    <tripinfo id="mixed.11" depart="17.00" departLane="beg_0" departPos="5.10" departSpeed="0.00" departDelay="6.00" arrival="216.00" arrivalLane="end_1" arrivalPos="200.00" arrivalSpeed="14.25" duration="199.00" routeLength="494.90" waitSteps="150" timeLoss="165.99" rerouteNo="0" devices="tripinfo_mixed.11" vType="car" vaporized=""/>
    <tripinfo id="mixed.5" depart="6.00" departLane="beg_0" departPos="5.10" departSpeed="0.00" departDelay="1.00" arrival="217.00" arrivalLane="end_0" arrivalPos="200.00" arrivalSpeed="13.40" duration="211.00" routeLength="494.90" waitSteps="153" timeLoss="175.53" rerouteNo="0" devices="tripinfo_mixed.5" vType="car" vaporized=""/>
    <tripinfo id="mixed.6" depart="7.00" departLane="beg_1" departPos="2.20" departSpeed="0.00" departDelay="1.00" arrival="220.00" arrivalLane="end_0" arrivalPos="200.00" arrivalSpeed="16.35" duration="213.00" routeLength="497.80" waitSteps="163" timeLoss="182.90" rerouteNo="0" devices="tripinfo_mixed.6" vType="moped" vaporized=""/>
    <tripinfo id="mixed.14" depart="20.00" departLane="beg_1" departPos="2.20" departSpeed="0.00" departDelay="6.00" arrival="223.00" arrivalLane="end_0" arrivalPos="200.00" arrivalSpeed="14.43" duration="203.00" routeLength="497.80" waitSteps="148" timeLoss="167.87" rerouteNo="0" devices="tripinfo_mixed.14" vType="moped" vaporized=""/>
    <tripinfo id="mixed.0" depart="0.00" departLane="beg_0" departPos="2.20" departSpeed="0.00" departDelay="0.00" arrival="225.00" arrivalLane="end_0" arrivalPos="200.00" arrivalSpeed="10.00" duration="225.00" routeLength="497.80" waitSteps="163" timeLoss="177.15" rerouteNo="0" devices="tripinfo_mixed.0" vType="moped" vaporized=""/>
    <tripinfo id="mixed.17" depart="28.00" departLane="beg_1" departPos="5.10" departSpeed="0.00" departDelay="11.00" arrival="225.00" arrivalLane="end_1" arrivalPos="200.00" arrivalSpeed="13.14" duration="197.00" routeLength="494.90" waitSteps="146" timeLoss="161.56" rerouteNo="0" devices="tripinfo_mixed.17" vType="car" vaporized=""/>
    <tripinfo id="mixed.9" depart="13.00" departLane="beg_0" departPos="5.10" departSpeed="0.00" departDelay="4.00" arrival="226.00" arrivalLane="end_0" arrivalPos="200.00" arrivalSpeed="10.53" duration="213.00" routeLength="494.90" waitSteps="148" timeLoss="167.77" rerouteNo="0" devices="tripinfo_mixed.9" vType="car" vaporized=""/>
    <tripinfo id="mixed.3" depart="4.00" departLane="beg_1" departPos="2.20" departSpeed="0.00" departDelay="1.00" arrival="227.00" arrivalLane="end_0" arrivalPos="200.00" arrivalSpeed="11.66" duration="223.00" routeLength="497.80" waitSteps="163" timeLoss="185.76" rerouteNo="0" devices="tripinfo_mixed.3" vType="moped" vaporized=""/>
    <tripinfo id="mixed.8" depart="10.00" departLane="beg_0" departPos="5.10" departSpeed="0.00" departDelay="2.00" arrival="227.00" arrivalLane="end_0" arrivalPos="200.00" arrivalSpeed="12.72" duration="217.00" routeLength="494.90" waitSteps="146" timeLoss="188.30" rerouteNo="0" devices="tripinfo_mixed.8" vType="car" vaporized=""/>
    <tripinfo id="mixed.23" depart="37.00" departLane="beg_0" departPos="2.20" departSpeed="0.00" departDelay="14.00" arrival="227.00" arrivalLane="end_1" arrivalPos="200.00" arrivalSpeed="15.29" duration="190.00" routeLength="497.80" waitSteps="127" timeLoss="159.30" rerouteNo="0" devices="tripinfo_mixed.23" vType="moped" vaporized=""/>
    <tripinfo id="mixed.10" depart="13.00" departLane="beg_1" departPos="2.20" departSpeed="0.00" departDelay="3.00" arrival="227.00" arrivalLane="end_1" arrivalPos="200.00" arrivalSpeed="9.75" duration="214.00" routeLength="497.80" waitSteps="149" timeLoss="163.00" rerouteNo="0" devices="tripinfo_mixed.10" vType="moped" vaporized=""/>
    <tripinfo id="mixed.22" depart="37.00" departLane="beg_1" departPos="2.20" departSpeed="0.00" departDelay="15.00" arrival="228.00" arrivalLane="end_1" arrivalPos="200.00" arrivalSpeed="15.46" duration="191.00" routeLength="497.80" waitSteps="131" timeLoss="160.60" rerouteNo="0" devices="tripinfo_mixed.22" vType="moped" vaporized=""/>
    <tripinfo id="mixed.12" depart="19.00" departLane="beg_1" departPos="2.20" departSpeed="0.00" departDelay="7.00" arrival="229.00" arrivalLane="end_0" arrivalPos="200.00" arrivalSpeed="10.16" duration="210.00" routeLength="497.80" waitSteps="146" timeLoss="161.09" rerouteNo="0" devices="tripinfo_mixed.12" vType="moped" vaporized=""/>
    <tripinfo id="mixed.15" depart="23.00" departLane="beg_0" departPos="2.20" departSpeed="0.00" departDelay="8.00" arrival="229.00" arrivalLane="end_0" arrivalPos="200.00" arrivalSpeed="12.90" duration="206.00" routeLength="497.80" waitSteps="141" timeLoss="173.53" rerouteNo="0" devices="tripinfo_mixed.15" vType="moped" vaporized=""/>
    <tripinfo id="mixed.19" depart="31.00" departLane="beg_1" departPos="5.10" departSpeed="0.00" departDelay="12.00" arrival="230.00" arrivalLane="end_1" arrivalPos="200.00" arrivalSpeed="12.05" duration="199.00" routeLength="494.90" waitSteps="142" timeLoss="165.65" rerouteNo="0" devices="tripinfo_mixed.19" vType="car" vaporized=""/>
    <tripinfo id="mixed.37" depart="59.00" departLane="beg_1" departPos="2.20" departSpeed="0.00" departDelay="22.00" arrival="232.00" arrivalLane="end_1" arrivalPos="200.00" arrivalSpeed="16.12" duration="173.00" routeLength="497.80" waitSteps="116" timeLoss="142.43" rerouteNo="0" devices="tripinfo_mixed.37" vType="moped" vaporized=""/>
    <tripinfo id="mixed.18" depart="30.00" departLane="beg_0" departPos="5.10" departSpeed="0.00" departDelay="12.00" arrival="233.00" arrivalLane="end_0" arrivalPos="200.00" arrivalSpeed="9.58" duration="203.00" routeLength="494.90" waitSteps="140" timeLoss="154.58" rerouteNo="0" devices="tripinfo_mixed.18" vType="car" vaporized=""/>
    <tripinfo id="mixed.21" depart="35.00" departLane="beg_1" departPos="5.10" departSpeed="0.00" departDelay="14.00" arrival="233.00" arrivalLane="end_1" arrivalPos="200.00" arrivalSpeed="9.79" duration="198.00" routeLength="494.90" waitSteps="132" timeLoss="151.91" rerouteNo="0" devices="tripinfo_mixed.21" vType="car" vaporized=""/>
    <tripinfo id="mixed.32" depart="53.00" departLane="beg_1" departPos="5.10" departSpeed="0.00" departDelay="21.00" arrival="234.00" arrivalLane="end_1" arrivalPos="200.00" arrivalSpeed="12.18" duration="181.00" routeLength="494.90" waitSteps="120" timeLoss="147.69" rerouteNo="0" devices="tripinfo_mixed.32" vType="car" vaporized=""/>
    <tripinfo id="mixed.4" depart="4.00" departLane="beg_0" departPos="2.20" departSpeed="0.00" departDelay="0.00" arrival="235.00" arrivalLane="end_0" arrivalPos="200.00" arrivalSpeed="7.50" duration="231.00" routeLength="497.80" waitSteps="152" timeLoss="164.59" rerouteNo="0" devices="tripinfo_mixed.4" vType="moped" vaporized=""/>
    <tripinfo id="mixed.25" depart="42.00" departLane="beg_1" departPos="5.10" departSpeed="0.00" departDelay="17.00" arrival="235.00" arrivalLane="end_0" arrivalPos="200.00" arrivalSpeed="12.74" duration="193.00" routeLength="494.90" waitSteps="127" timeLoss="154.13" rerouteNo="0" devices="tripinfo_mixed.25" vType="car" vaporized=""/>
    <tripinfo id="mixed.28" depart="47.00" departLane="beg_0" departPos="2.20" departSpeed="0.00" departDelay="19.00" arrival="236.00" arrivalLane="end_1" arrivalPos="200.00" arrivalSpeed="12.52" duration="189.00" routeLength="497.80" waitSteps="124" timeLoss="158.75" rerouteNo="0" devices="tripinfo_mixed.28" vType="moped" vaporized=""/>
    <tripinfo id="mixed.44" depart="73.00" departLane="beg_1" departPos="5.10" departSpeed="0.00" departDelay="29.00" arrival="236.00" arrivalLane="end_1" arrivalPos="200.00" arrivalSpeed="13.80" duration="163.00" routeLength="494.90" waitSteps="110" timeLoss="128.50" rerouteNo="0" devices="tripinfo_mixed.44" vType="car" vaporized=""/>
    <tripinfo id="mixed.7" depart="9.00" departLane="beg_1" departPos="2.20" departSpeed="0.00" departDelay="2.00" arrival="237.00" arrivalLane="end_0" arrivalPos="200.00" arrivalSpeed="8.93" duration="228.00" routeLength="497.80" waitSteps="151" timeLoss="175.30" rerouteNo="0" devices="tripinfo_mixed.7" vType="moped" vaporized=""/>
    <tripinfo id="mixed.13" depart="20.00" departLane="beg_0" departPos="2.20" departSpeed="0.00" departDelay="7.00" arrival="237.00" arrivalLane="end_0" arrivalPos="200.00" arrivalSpeed="11.63" duration="217.00" routeLength="497.80" waitSteps="141" timeLoss="186.67" rerouteNo="0" devices="tripinfo_mixed.13" vType="moped" vaporized=""/>
    <tripinfo id="mixed.40" depart="65.00" departLane="beg_1" departPos="2.20" departSpeed="0.00" departDelay="25.00" arrival="237.00" arrivalLane="end_0" arrivalPos="200.00" arrivalSpeed="12.55" duration="172.00" routeLength="497.80" waitSteps="110" timeLoss="136.46" rerouteNo="0" devices="tripinfo_mixed.40" vType="moped" vaporized=""/>
    <tripinfo id="mixed.26" depart="44.00" departLane="beg_0" departPos="2.20" departSpeed="0.00" departDelay="18.00" arrival="238.00" arrivalLane="end_0" arrivalPos="200.00" arrivalSpeed="11.40" duration="194.00" routeLength="497.80" waitSteps="121" timeLoss="160.67" rerouteNo="0" devices="tripinfo_mixed.26" vType="moped" vaporized=""/>
    <tripinfo id="mixed.45" depart="76.00" departLane="beg_0" departPos="5.10" departSpeed="0.00" departDelay="31.00" arrival="238.00" arrivalLane="end_1" arrivalPos="200.00" arrivalSpeed="13.56" duration="162.00" routeLength="494.90" waitSteps="108" timeLoss="125.57" rerouteNo="0" devices="tripinfo_mixed.45" vType="car" vaporized=""/>
    <tripinfo id="mixed.38" depart="61.00" departLane="beg_0" departPos="2.20" departSpeed="0.00" departDelay="23.00" arrival="239.00" arrivalLane="end_0" arrivalPos="200.00" arrivalSpeed="13.09" duration="178.00" routeLength="497.80" waitSteps="117" timeLoss="147.57" rerouteNo="0" devices="tripinfo_mixed.38" vType="moped" vaporized=""/>
    <tripinfo id="mixed.46" depart="76.00" departLane="beg_1" departPos="2.20" departSpeed="0.00" departDelay="30.00" arrival="240.00" arrivalLane="end_1" arrivalPos="200.00" arrivalSpeed="15.17" duration="164.00" routeLength="497.80" waitSteps="100" timeLoss="133.23" rerouteNo="0" devices="tripinfo_mixed.46" vType="moped" vaporized=""/>
    <tripinfo id="mixed.34" depart="56.00" departLane="beg_1" departPos="5.10" departSpeed="0.00" departDelay="22.00" arrival="241.00" arrivalLane="end_0" arrivalPos="200.00" arrivalSpeed="10.95" duration="185.00" routeLength="494.90" waitSteps="120" timeLoss="139.53" rerouteNo="0" devices="tripinfo_mixed.34" vType="car" vaporized=""/>
    <tripinfo id="mixed.30" depart="50.00" departLane="beg_1" departPos="2.20" departSpeed="0.00" departDelay="20.00" arrival="241.00" arrivalLane="end_1" arrivalPos="200.00" arrivalSpeed="15.09" duration="191.00" routeLength="497.80" waitSteps="118" timeLoss="158.54" rerouteNo="0" devices="tripinfo_mixed.30" vType="moped" vaporized=""/>
    <tripinfo id="mixed.56" depart="91.00" departLane="beg_1" departPos="5.10" departSpeed="0.00" departDelay="35.00" arrival="242.00" arrivalLane="end_1" arrivalPos="200.00" arrivalSpeed="14.57" duration="151.00" routeLength="494.90" waitSteps="92" timeLoss="116.98" rerouteNo="0" devices="tripinfo_mixed.56" vType="car" vaporized=""/>
    <tripinfo id="mixed.39" depart="64.00" departLane="beg_0" departPos="2.20" departSpeed="0.00" departDelay="25.00" arrival="242.00" arrivalLane="end_1" arrivalPos="200.00" arrivalSpeed="15.77" duration="178.00" routeLength="497.80" waitSteps="114" timeLoss="147.86" rerouteNo="0" devices="tripinfo_mixed.39" vType="moped" vaporized=""/>
    <tripinfo id="mixed.61" depart="99.00" departLane="beg_0" departPos="2.20" departSpeed="0.00" departDelay="38.00" arrival="244.00" arrivalLane="end_1" arrivalPos="200.00" arrivalSpeed="15.42" duration="145.00" routeLength="497.80" waitSteps="74" timeLoss="114.26" rerouteNo="0" devices="tripinfo_mixed.61" vType="moped" vaporized=""/>
    <tripinfo id="mixed.63" depart="101.00" departLane="beg_1" departPos="2.20" departSpeed="0.00" departDelay="38.00" arrival="245.00" arrivalLane="end_0" arrivalPos="200.00" arrivalSpeed="12.31" duration="144.00" routeLength="497.80" waitSteps="76" timeLoss="104.50" rerouteNo="0" devices="tripinfo_mixed.63" vType="moped" vaporized=""/>
    <tripinfo id="mixed.24" depart="40.00" departLane="beg_0" departPos="2.20" departSpeed="0.00" departDelay="16.00" arrival="247.00" arrivalLane="end_1" arrivalPos="200.00" arrivalSpeed="13.34" duration="207.00" routeLength="497.80" waitSteps="132" timeLoss="169.78" rerouteNo="0" devices="tripinfo_mixed.24" vType="moped" vaporized=""/>
    <tripinfo id="mixed.20" depart="34.00" departLane="beg_0" departPos="5.10" departSpeed="0.00" departDelay="14.00" arrival="248.00" arrivalLane="end_0" arrivalPos="200.00" arrivalSpeed="15.50" duration="214.00" routeLength="494.90" waitSteps="133" timeLoss="185.66" rerouteNo="0" devices="tripinfo_mixed.20" vType="car" vaporized=""/>
    <tripinfo id="mixed.62" depart="101.00" departLane="beg_0" departPos="2.20" departSpeed="0.00" departDelay="39.00" arrival="248.00" arrivalLane="end_1" arrivalPos="200.00" arrivalSpeed="12.22" duration="147.00" routeLength="497.80" waitSteps="71" timeLoss="107.20" rerouteNo="0" devices="tripinfo_mixed.62" vType="moped" vaporized=""/>
    <tripinfo id="mixed.16" depart="23.00" departLane="beg_1" departPos="2.20" departSpeed="0.00" departDelay="7.00" arrival="249.00" arrivalLane="end_0" arrivalPos="200.00" arrivalSpeed="7.54" duration="226.00" routeLength="497.80" waitSteps="136" timeLoss="161.33" rerouteNo="0" devices="tripinfo_mixed.16" vType="moped" vaporized=""/>
    <tripinfo id="mixed.71" depart="115.00" departLane="beg_1" departPos="5.10" departSpeed="0.00" departDelay="44.00" arrival="250.00" arrivalLane="end_1" arrivalPos="200.00" arrivalSpeed="16.60" duration="135.00" routeLength="494.90" waitSteps="70" timeLoss="106.75" rerouteNo="0" devices="tripinfo_mixed.71" vType="car" vaporized=""/>
    <tripinfo id="mixed.31" depart="52.00" departLane="beg_0" departPos="2.20" departSpeed="0.00" departDelay="21.00" arrival="251.00" arrivalLane="end_0" arrivalPos="200.00" arrivalSpeed="12.66" duration="199.00" routeLength="497.80" waitSteps="126" timeLoss="168.51" rerouteNo="0" devices="tripinfo_mixed.31" vType="moped" vaporized=""/>
    <tripinfo id="mixed.58" depart="95.00" departLane="beg_1" departPos="5.10" departSpeed="0.00" departDelay="37.00" arrival="252.00" arrivalLane="end_1" arrivalPos="200.00" arrivalSpeed="15.48" duration="157.00" routeLength="494.90" waitSteps="91" timeLoss="125.94" rerouteNo="0" devices="tripinfo_mixed.58" vType="car" vaporized=""/>
    <tripinfo id="mixed.27" depart="46.00" departLane="beg_1" departPos="2.20" departSpeed="0.00" departDelay="19.00" arrival="253.00" arrivalLane="end_0" arrivalPos="200.00" arrivalSpeed="10.37" duration="207.00" routeLength="497.80" waitSteps="126" timeLoss="159.56" rerouteNo="0" devices="tripinfo_mixed.27" vType="moped" vaporized=""/>
    <tripinfo id="mixed.68" depart="110.00" departLane="beg_0" departPos="2.20" departSpeed="0.00" departDelay="42.00" arrival="253.00" arrivalLane="end_1" arrivalPos="200.00" arrivalSpeed="16.61" duration="143.00" routeLength="497.80" waitSteps="68" timeLoss="112.98" rerouteNo="0" devices="tripinfo_mixed.68" vType="moped" vaporized=""/>
    <tripinfo id="mixed.42" depart="68.00" departLane="beg_1" departPos="2.20" departSpeed="0.00" departDelay="26.00" arrival="254.00" arrivalLane="end_0" arrivalPos="200.00" arrivalSpeed="8.27" duration="186.00" routeLength="497.80" waitSteps="105" timeLoss="125.32" rerouteNo="0" devices="tripinfo_mixed.42" vType="moped" vaporized=""/>
    <tripinfo id="mixed.77" depart="125.00" departLane="beg_1" departPos="2.20" departSpeed="0.00" departDelay="48.00" arrival="255.00" arrivalLane="end_1" arrivalPos="200.00" arrivalSpeed="16.20" duration="130.00" routeLength="497.80" waitSteps="55" timeLoss="99.41" rerouteNo="0" devices="tripinfo_mixed.77" vType="moped" vaporized=""/>
    <tripinfo id="mixed.54" depart="88.00" departLane="beg_1" departPos="5.10" departSpeed="0.00" departDelay="34.00" arrival="256.00" arrivalLane="end_0" arrivalPos="200.00" arrivalSpeed="12.30" duration="168.00" routeLength="494.90" waitSteps="97" timeLoss="135.20" rerouteNo="0" devices="tripinfo_mixed.54" vType="car" vaporized=""/>
    <tripinfo id="mixed.1" depart="1.00" departLane="beg_1" departPos="2.20" departSpeed="0.00" departDelay="0.00" arrival="257.00" arrivalLane="end_0" arrivalPos="200.00" arrivalSpeed="4.55" duration="256.00" routeLength="497.80" waitSteps="140" timeLoss="154.67" rerouteNo="0" devices="tripinfo_mixed.1" vType="moped" vaporized=""/>
    <tripinfo id="mixed.43" depart="70.00" departLane="beg_0" departPos="2.20" departSpeed="0.00" departDelay="27.00" arrival="257.00" arrivalLane="end_1" arrivalPos="200.00" arrivalSpeed="11.54" duration="187.00" routeLength="497.80" waitSteps="104" timeLoss="143.96" rerouteNo="0" devices="tripinfo_mixed.43" vType="moped" vaporized=""/>
    <tripinfo id="mixed.60" depart="98.00" departLane="beg_1" departPos="5.10" departSpeed="0.00" departDelay="38.00" arrival="258.00" arrivalLane="end_1" arrivalPos="200.00" arrivalSpeed="14.08" duration="160.00" routeLength="494.90" waitSteps="87" timeLoss="124.76" rerouteNo="0" devices="tripinfo_mixed.60" vType="car" vaporized=""/>
    <tripinfo id="mixed.74" depart="120.00" departLane="beg_1" departPos="2.20" departSpeed="0.00" departDelay="46.00" arrival="258.00" arrivalLane="end_1" arrivalPos="200.00" arrivalSpeed="11.80" duration="138.00" routeLength="497.80" waitSteps="63" timeLoss="96.80" rerouteNo="0" devices="tripinfo_mixed.74" vType="moped" vaporized=""/>
    <tripinfo id="mixed.36" depart="58.00" departLane="beg_1" departPos="2.20" departSpeed="0.00" departDelay="22.00" arrival="259.00" arrivalLane="end_0" arrivalPos="200.00" arrivalSpeed="6.59" duration="201.00" routeLength="497.80" waitSteps="110" timeLoss="129.94" rerouteNo="0" devices="tripinfo_mixed.36" vType="moped" vaporized=""/>
    <tripinfo id="mixed.55" depart="91.00" departLane="beg_0" departPos="5.10" departSpeed="0.00" departDelay="36.00" arrival="259.00" arrivalLane="end_1" arrivalPos="200.00" arrivalSpeed="14.72" duration="168.00" routeLength="494.90" waitSteps="90" timeLoss="139.02" rerouteNo="0" devices="tripinfo_mixed.55" vType="car" vaporized=""/>
    <tripinfo id="mixed.35" depart="58.00" departLane="beg_0" departPos="2.20" departSpeed="0.00" departDelay="23.00" arrival="261.00" arrivalLane="end_0" arrivalPos="200.00" arrivalSpeed="10.06" duration="203.00" routeLength="497.80" waitSteps="120" timeLoss="169.42" rerouteNo="0" devices="tripinfo_mixed.35" vType="moped" vaporized=""/>
    <tripinfo id="mixed.70" depart="114.00" departLane="beg_0" departPos="5.10" departSpeed="0.00" departDelay="44.00" arrival="262.00" arrivalLane="end_1" arrivalPos="200.00" arrivalSpeed="10.55" duration="148.00" routeLength="494.90" waitSteps="66" timeLoss="103.79" rerouteNo="0" devices="tripinfo_mixed.70" vType="car" vaporized=""/>
    <tripinfo id="mixed.51" depart="83.00" departLane="beg_1" departPos="2.20" departSpeed="0.00" departDelay="32.00" arrival="264.00" arrivalLane="end_0" arrivalPos="200.00" arrivalSpeed="10.74" duration="181.00" routeLength="497.80" waitSteps="98" timeLoss="134.77" rerouteNo="0" devices="tripinfo_mixed.51" vType="moped" vaporized=""/>
    <tripinfo id="mixed.2" depart="2.00" departLane="beg_0" departPos="2.20" departSpeed="0.00" departDelay="0.00" arrival="264.00" arrivalLane="end_0" arrivalPos="200.00" arrivalSpeed="4.38" duration="262.00" routeLength="497.80" waitSteps="137" timeLoss="151.00" rerouteNo="0" devices="tripinfo_mixed.2" vType="moped" vaporized=""/>
    <tripinfo id="mixed.87" depart="143.00" departLane="beg_0" departPos="2.20" departSpeed="0.00" departDelay="56.00" arrival="264.00" arrivalLane="end_1" arrivalPos="200.00" arrivalSpeed="14.23" duration="121.00" routeLength="497.80" waitSteps="43" timeLoss="90.42" rerouteNo="0" devices="tripinfo_mixed.87" vType="moped" vaporized=""/>
    <tripinfo id="mixed.69" depart="112.00" departLane="beg_1" departPos="5.10" departSpeed="0.00" departDelay="43.00" arrival="265.00" arrivalLane="end_1" arrivalPos="200.00" arrivalSpeed="9.05" duration="153.00" routeLength="494.90" waitSteps="81" timeLoss="103.33" rerouteNo="0" devices="tripinfo_mixed.69" vType="car" vaporized=""/>
    <tripinfo id="mixed.53" depart="87.00" departLane="beg_0" departPos="2.20" departSpeed="0.00" departDelay="34.00" arrival="266.00" arrivalLane="end_0" arrivalPos="200.00" arrivalSpeed="9.37" duration="179.00" routeLength="497.80" waitSteps="96" timeLoss="127.59" rerouteNo="0" devices="tripinfo_mixed.53" vType="moped" vaporized=""/>
    <tripinfo id="mixed.41" depart="68.00" departLane="beg_0" departPos="2.20" departSpeed="0.00" departDelay="27.00" arrival="266.00" arrivalLane="end_0" arrivalPos="200.00" arrivalSpeed="6.08" duration="198.00" routeLength="497.80" waitSteps="119" timeLoss="167.73" rerouteNo="0" devices="tripinfo_mixed.41" vType="moped" vaporized=""/>
    <tripinfo id="mixed.47" depart="78.00" departLane="beg_0" departPos="2.20" departSpeed="0.00" departDelay="31.00" arrival="267.00" arrivalLane="end_0" arrivalPos="200.00" arrivalSpeed="6.72" duration="189.00" routeLength="497.80" waitSteps="102" timeLoss="152.67" rerouteNo="0" devices="tripinfo_mixed.47" vType="moped" vaporized=""/>
    <tripinfo id="mixed.81" depart="135.00" departLane="beg_0" departPos="5.10" departSpeed="0.00" departDelay="54.00" arrival="267.00" arrivalLane="end_1" arrivalPos="200.00" arrivalSpeed="12.85" duration="132.00" routeLength="494.90" waitSteps="54" timeLoss="106.05" rerouteNo="0" devices="tripinfo_mixed.81" vType="car" vaporized=""/>
    <tripinfo id="mixed.85" depart="143.00" departLane="beg_1" departPos="2.20" departSpeed="0.00" departDelay="58.00" arrival="267.00" arrivalLane="end_1" arrivalPos="200.00" arrivalSpeed="12.18" duration="124.00" routeLength="497.80" waitSteps="49" timeLoss="82.96" rerouteNo="0" devices="tripinfo_mixed.85" vType="moped" vaporized=""/>
    <tripinfo id="mixed.48" depart="79.00" departLane="beg_0" departPos="2.20" departSpeed="0.00" departDelay="31.00" arrival="269.00" arrivalLane="end_0" arrivalPos="200.00" arrivalSpeed="7.93" duration="190.00" routeLength="497.80" waitSteps="95" timeLoss="151.70" rerouteNo="0" devices="tripinfo_mixed.48" vType="moped" vaporized=""/>
    <tripinfo id="mixed.64" depart="103.00" departLane="beg_1" departPos="5.10" departSpeed="0.00" departDelay="39.00" arrival="269.00" arrivalLane="end_0" arrivalPos="200.00" arrivalSpeed="11.76" duration="166.00" routeLength="494.90" waitSteps="91" timeLoss="130.34" rerouteNo="0" devices="tripinfo_mixed.64" vType="car" vaporized=""/>
    <tripinfo id="mixed.84" depart="141.00" departLane="beg_1" departPos="5.10" departSpeed="0.00" departDelay="57.00" arrival="269.00" arrivalLane="end_1" arrivalPos="200.00" arrivalSpeed="15.71" duration="128.00" routeLength="494.90" waitSteps="58" timeLoss="97.44" rerouteNo="0" devices="tripinfo_mixed.84" vType="car" vaporized=""/>
    <tripinfo id="mixed.96" depart="160.00" departLane="beg_1" departPos="5.10" departSpeed="0.00" departDelay="64.00" arrival="270.00" arrivalLane="end_1" arrivalPos="200.00" arrivalSpeed="15.50" duration="110.00" routeLength="494.90" waitSteps="43" timeLoss="81.12" rerouteNo="0" devices="tripinfo_mixed.96" vType="car" vaporized=""/>
    <tripinfo id="mixed.50" depart="80.00" departLane="beg_1" departPos="2.20" departSpeed="0.00" departDelay="30.00" arrival="271.00" arrivalLane="end_0" arrivalPos="200.00" arrivalSpeed="6.01" duration="191.00" routeLength="497.80" waitSteps="102" timeLoss="133.59" rerouteNo="0" devices="tripinfo_mixed.50" vType="moped" vaporized=""/>
    <tripinfo id="mixed.52" depart="87.00" departLane="beg_0" departPos="5.10" departSpeed="0.00" departDelay="35.00" arrival="271.00" arrivalLane="end_0" arrivalPos="200.00" arrivalSpeed="13.26" duration="184.00" routeLength="494.90" waitSteps="75" timeLoss="149.15" rerouteNo="0" devices="tripinfo_mixed.52" vType="car" vaporized=""/>
    <tripinfo id="mixed.94" depart="156.00" departLane="beg_1" departPos="2.20" departSpeed="0.00" departDelay="62.00" arrival="272.00" arrivalLane="end_1" arrivalPos="200.00" arrivalSpeed="14.67" duration="116.00" routeLength="497.80" waitSteps="42" timeLoss="83.83" rerouteNo="0" devices="tripinfo_mixed.94" vType="moped" vaporized=""/>
    <tripinfo id="mixed.49" depart="79.00" departLane="beg_1" departPos="2.20" departSpeed="0.00" departDelay="30.00" arrival="273.00" arrivalLane="end_0" arrivalPos="200.00" arrivalSpeed="10.11" duration="194.00" routeLength="497.80" waitSteps="105" timeLoss="151.13" rerouteNo="0" devices="tripinfo_mixed.49" vType="moped" vaporized=""/>
    <tripinfo id="mixed.75" depart="122.00" departLane="beg_0" departPos="5.10" departSpeed="0.00" departDelay="47.00" arrival="273.00" arrivalLane="end_1" arrivalPos="200.00" arrivalSpeed="11.59" duration="151.00" routeLength="494.90" waitSteps="72" timeLoss="110.76" rerouteNo="0" devices="tripinfo_mixed.75" vType="car" vaporized=""/>
    <tripinfo id="mixed.97" depart="163.00" departLane="beg_1" departPos="2.20" departSpeed="0.00" departDelay="66.00" arrival="273.00" arrivalLane="end_1" arrivalPos="200.00" arrivalSpeed="15.16" duration="110.00" routeLength="497.80" waitSteps="41" timeLoss="80.03" rerouteNo="0" devices="tripinfo_mixed.97" vType="moped" vaporized=""/>
    <tripinfo id="mixed.78" depart="125.00" departLane="beg_0" departPos="5.10" departSpeed="0.00" departDelay="47.00" arrival="275.00" arrivalLane="end_0" arrivalPos="200.00" arrivalSpeed="14.28" duration="150.00" routeLength="494.90" waitSteps="66" timeLoss="115.74" rerouteNo="0" devices="tripinfo_mixed.78" vType="car" vaporized=""/>
    <tripinfo id="mixed.86" depart="143.00" departLane="beg_1" departPos="2.20" departSpeed="0.00" departDelay="57.00" arrival="277.00" arrivalLane="end_1" arrivalPos="200.00" arrivalSpeed="12.24" duration="134.00" routeLength="497.80" waitSteps="58" timeLoss="103.73" rerouteNo="0" devices="tripinfo_mixed.86" vType="moped" vaporized=""/>
    <tripinfo id="mixed.59" depart="96.00" departLane="beg_0" departPos="2.20" departSpeed="0.00" departDelay="37.00" arrival="278.00" arrivalLane="end_0" arrivalPos="200.00" arrivalSpeed="7.88" duration="182.00" routeLength="497.80" waitSteps="85" timeLoss="120.39" rerouteNo="0" devices="tripinfo_mixed.59" vType="moped" vaporized=""/>
    <tripinfo id="mixed.91" depart="152.00" departLane="beg_1" departPos="2.20" departSpeed="0.00" departDelay="61.00" arrival="279.00" arrivalLane="end_0" arrivalPos="200.00" arrivalSpeed="11.42" duration="127.00" routeLength="497.80" waitSteps="46" timeLoss="94.54" rerouteNo="0" devices="tripinfo_mixed.91" vType="moped" vaporized=""/>
    <tripinfo id="mixed.67" depart="107.00" departLane="beg_1" departPos="2.20" departSpeed="0.00" departDelay="40.00" arrival="279.00" arrivalLane="end_0" arrivalPos="200.00" arrivalSpeed="8.84" duration="172.00" routeLength="497.80" waitSteps="85" timeLoss="141.86" rerouteNo="0" devices="tripinfo_mixed.67" vType="moped" vaporized=""/>
    <tripinfo id="mixed.98" depart="163.00" departLane="beg_0" departPos="5.10" departSpeed="0.00" departDelay="65.00" arrival="279.00" arrivalLane="end_1" arrivalPos="200.00" arrivalSpeed="13.77" duration="116.00" routeLength="494.90" waitSteps="43" timeLoss="81.88" rerouteNo="0" devices="tripinfo_mixed.98" vType="car" vaporized=""/>
    <tripinfo id="mixed.29" depart="47.00" departLane="beg_1" departPos="2.20" departSpeed="0.00" departDelay="18.00" arrival="281.00" arrivalLane="end_0" arrivalPos="200.00" arrivalSpeed="4.57" duration="234.00" routeLength="497.80" waitSteps="113" timeLoss="127.44" rerouteNo="0" devices="tripinfo_mixed.29" vType="moped" vaporized=""/>
    <tripinfo id="mixed.89" depart="149.00" departLane="beg_1" departPos="2.20" departSpeed="0.00" departDelay="60.00" arrival="281.00" arrivalLane="end_1" arrivalPos="200.00" arrivalSpeed="12.20" duration="132.00" routeLength="497.80" waitSteps="55" timeLoss="91.64" rerouteNo="0" devices="tripinfo_mixed.89" vType="moped" vaporized=""/>
    <tripinfo id="mixed.79" depart="130.00" departLane="beg_0" departPos="5.10" departSpeed="0.00" departDelay="51.00" arrival="281.00" arrivalLane="end_1" arrivalPos="200.00" arrivalSpeed="12.63" duration="151.00" routeLength="494.90" waitSteps="61" timeLoss="112.81" rerouteNo="0" devices="tripinfo_mixed.79" vType="car" vaporized=""/>
    <tripinfo id="mixed.83" depart="138.00" departLane="beg_0" departPos="2.20" departSpeed="0.00" departDelay="55.00" arrival="282.00" arrivalLane="end_1" arrivalPos="200.00" arrivalSpeed="14.99" duration="144.00" routeLength="497.80" waitSteps="63" timeLoss="110.68" rerouteNo="0" devices="tripinfo_mixed.83" vType="moped" vaporized=""/>
    <tripinfo id="mixed.57" depart="93.00" departLane="beg_0" departPos="2.20" departSpeed="0.00" departDelay="36.00" arrival="283.00" arrivalLane="end_0" arrivalPos="200.00" arrivalSpeed="5.52" duration="190.00" routeLength="497.80" waitSteps="88" timeLoss="136.09" rerouteNo="0" devices="tripinfo_mixed.57" vType="moped" vaporized=""/>