<?xml version="1.0" encoding="UTF-8"?>

<!-- generated on Thu Mar  3 13:54:39 2016 by SUMO Version dev-SVN-r20128
<?xml version="1.0" encoding="UTF-8"?>

<configuration xmlns:xsi="http://www.w3.org/2001/XMLSchema-instance" xsi:noNamespaceSchemaLocation="http://sumo.dlr.de/xsd/sumoConfiguration.xsd">

    <input>
        <net-file value="net.net.xml"/>
        <route-files value="input_routes.rou.xml"/>
    </input>

    <output>
        <tripinfo-output value="tripinfos.xml"/>
    </output>

    <processing>
        <lateral-resolution value="0.64"/>
    </processing>

    <report>
        <xml-validation value="never"/>
        <no-step-log value="true"/>
    </report>

</configuration>
-->

<tripinfos xmlns:xsi="http://www.w3.org/2001/XMLSchema-instance" xsi:noNamespaceSchemaLocation="http://sumo.dlr.de/xsd/tripinfo_file.xsd">
    <tripinfo id="mixed.6" depart="7.00" departLane="beg_1" departPos="2.20" departSpeed="0.00" departDelay="1.00" arrival="221.00" arrivalLane="end_0" arrivalPos="200.00" arrivalSpeed="16.59" duration="214.00" routeLength="497.80" waitSteps="162" timeLoss="183.13" rerouteNo="0" devices="tripinfo_mixed.6" vType="moped" vaporized=""/>
    <tripinfo id="mixed.15" depart="20.00" departLane="beg_1" departPos="2.20" departSpeed="0.00" departDelay="5.00" arrival="221.00" arrivalLane="end_0" arrivalPos="200.00" arrivalSpeed="15.11" duration="201.00" routeLength="497.80" waitSteps="148" timeLoss="168.74" rerouteNo="0" devices="tripinfo_mixed.15" vType="moped" vaporized=""/>
    <tripinfo id="mixed.17" depart="23.00" departLane="beg_0" departPos="5.10" departSpeed="0.00" departDelay="6.00" arrival="224.00" arrivalLane="end_1" arrivalPos="200.00" arrivalSpeed="13.96" duration="201.00" routeLength="494.90" waitSteps="145" timeLoss="165.32" rerouteNo="0" devices="tripinfo_mixed.17" vType="car" vaporized=""/>
    <tripinfo id="mixed.0" depart="0.00" departLane="beg_0" departPos="2.20" departSpeed="0.00" departDelay="0.00" arrival="225.00" arrivalLane="end_0" arrivalPos="200.00" arrivalSpeed="10.14" duration="225.00" routeLength="497.80" waitSteps="164" timeLoss="177.07" rerouteNo="0" devices="tripinfo_mixed.0" vType="moped" vaporized=""/>
    <tripinfo id="mixed.7" depart="10.00" departLane="beg_1" departPos="2.20" departSpeed="0.00" departDelay="3.00" arrival="226.00" arrivalLane="end_0" arrivalPos="200.00" arrivalSpeed="9.54" duration="216.00" routeLength="497.80" waitSteps="149" timeLoss="163.88" rerouteNo="0" devices="tripinfo_mixed.7" vType="moped" vaporized=""/>
    <tripinfo id="mixed.19" depart="27.00" departLane="beg_1" departPos="5.10" departSpeed="0.00" departDelay="8.00" arrival="226.00" arrivalLane="end_1" arrivalPos="200.00" arrivalSpeed="13.50" duration="199.00" routeLength="494.90" waitSteps="143" timeLoss="164.65" rerouteNo="0" devices="tripinfo_mixed.19" vType="car" vaporized=""/>
    <tripinfo id="mixed.3" depart="4.00" departLane="beg_1" departPos="2.20" departSpeed="0.00" departDelay="1.00" arrival="227.00" arrivalLane="end_0" arrivalPos="200.00" arrivalSpeed="12.49" duration="223.00" routeLength="497.80" waitSteps="163" timeLoss="185.57" rerouteNo="0" devices="tripinfo_mixed.3" vType="moped" vaporized=""/>
    <tripinfo id="mixed.11" depart="16.00" departLane="beg_0" departPos="5.10" departSpeed="0.00" departDelay="5.00" arrival="227.00" arrivalLane="end_1" arrivalPos="200.00" arrivalSpeed="14.65" duration="211.00" routeLength="494.90" waitSteps="144" timeLoss="177.85" rerouteNo="0" devices="tripinfo_mixed.11" vType="car" vaporized=""/>
    <tripinfo id="mixed.5" depart="6.00" departLane="beg_0" departPos="5.10" departSpeed="0.00" departDelay="1.00" arrival="228.00" arrivalLane="end_0" arrivalPos="200.00" arrivalSpeed="13.56" duration="222.00" routeLength="494.90" waitSteps="160" timeLoss="186.63" rerouteNo="0" devices="tripinfo_mixed.5" vType="car" vaporized=""/>
    <tripinfo id="mixed.9" depart="13.00" departLane="beg_0" departPos="5.10" departSpeed="0.00" departDelay="4.00" arrival="230.00" arrivalLane="end_0" arrivalPos="200.00" arrivalSpeed="10.45" duration="217.00" routeLength="494.90" waitSteps="154" timeLoss="171.99" rerouteNo="0" devices="tripinfo_mixed.9" vType="car" vaporized=""/>
    <tripinfo id="mixed.8" depart="10.00" departLane="beg_0" departPos="5.10" departSpeed="0.00" departDelay="2.00" arrival="232.00" arrivalLane="end_0" arrivalPos="200.00" arrivalSpeed="14.88" duration="222.00" routeLength="494.90" waitSteps="149" timeLoss="192.57" rerouteNo="0" devices="tripinfo_mixed.8" vType="car" vaporized=""/>
    <tripinfo id="mixed.21" depart="31.00" departLane="beg_1" departPos="5.10" departSpeed="0.00" departDelay="10.00" arrival="232.00" arrivalLane="end_1" arrivalPos="200.00" arrivalSpeed="10.55" duration="201.00" routeLength="494.90" waitSteps="141" timeLoss="155.34" rerouteNo="0" devices="tripinfo_mixed.21" vType="car" vaporized=""/>
    <tripinfo id="mixed.14" depart="19.00" departLane="beg_0" departPos="2.20" departSpeed="0.00" departDelay="5.00" arrival="233.00" arrivalLane="end_0" arrivalPos="200.00" arrivalSpeed="12.22" duration="214.00" routeLength="497.80" waitSteps="143" timeLoss="179.46" rerouteNo="0" devices="tripinfo_mixed.14" vType="moped" vaporized=""/>
    <tripinfo id="mixed.26" depart="39.00" departLane="beg_1" departPos="2.20" departSpeed="0.00" departDelay="13.00" arrival="234.00" arrivalLane="end_1" arrivalPos="200.00" arrivalSpeed="12.35" duration="195.00" routeLength="497.80" waitSteps="132" timeLoss="161.14" rerouteNo="0" devices="tripinfo_mixed.26" vType="moped" vaporized=""/>
    <tripinfo id="mixed.25" depart="37.00" departLane="beg_1" departPos="5.10" departSpeed="0.00" departDelay="12.00" arrival="234.00" arrivalLane="end_1" arrivalPos="200.00" arrivalSpeed="12.36" duration="197.00" routeLength="494.90" waitSteps="142" timeLoss="158.21" rerouteNo="0" devices="tripinfo_mixed.25" vType="car" vaporized=""/>
    <tripinfo id="mixed.4" depart="4.00" departLane="beg_0" departPos="2.20" departSpeed="0.00" departDelay="0.00" arrival="235.00" arrivalLane="end_0" arrivalPos="200.00" arrivalSpeed="7.16" duration="231.00" routeLength="497.80" waitSteps="152" timeLoss="164.67" rerouteNo="0" devices="tripinfo_mixed.4" vType="moped" vaporized=""/>
    <tripinfo id="mixed.24" depart="33.00" departLane="beg_1" departPos="2.20" departSpeed="0.00" departDelay="9.00" arrival="235.00" arrivalLane="end_0" arrivalPos="200.00" arrivalSpeed="12.88" duration="202.00" routeLength="497.80" waitSteps="138" timeLoss="165.25" rerouteNo="0" devices="tripinfo_mixed.24" vType="moped" vaporized=""/>
    <tripinfo id="mixed.38" depart="58.00" departLane="beg_1" departPos="2.20" departSpeed="0.00" departDelay="20.00" arrival="235.00" arrivalLane="end_1" arrivalPos="200.00" arrivalSpeed="12.68" duration="177.00" routeLength="497.80" waitSteps="117" timeLoss="146.78" rerouteNo="0" devices="tripinfo_mixed.38" vType="moped" vaporized=""/>
    <tripinfo id="mixed.23" depart="33.00" departLane="beg_0" departPos="2.20" departSpeed="0.00" departDelay="10.00" arrival="235.00" arrivalLane="end_1" arrivalPos="200.00" arrivalSpeed="13.40" duration="202.00" routeLength="497.80" waitSteps="138" timeLoss="171.98" rerouteNo="0" devices="tripinfo_mixed.23" vType="moped" vaporized=""/>
    <tripinfo id="mixed.10" depart="14.00" departLane="beg_1" departPos="2.20" departSpeed="0.00" departDelay="4.00" arrival="237.00" arrivalLane="end_0" arrivalPos="200.00" arrivalSpeed="8.86" duration="223.00" routeLength="497.80" waitSteps="150" timeLoss="171.49" rerouteNo="0" devices="tripinfo_mixed.10" vType="moped" vaporized=""/>
    <tripinfo id="mixed.32" depart="50.00" departLane="beg_1" departPos="5.10" departSpeed="0.00" departDelay="18.00" arrival="237.00" arrivalLane="end_1" arrivalPos="200.00" arrivalSpeed="13.93" duration="187.00" routeLength="494.90" waitSteps="128" timeLoss="153.42" rerouteNo="0" devices="tripinfo_mixed.32" vType="car" vaporized=""/>
    <tripinfo id="mixed.12" depart="18.00" departLane="beg_1" departPos="2.20" departSpeed="0.00" departDelay="6.00" arrival="238.00" arrivalLane="end_0" arrivalPos="200.00" arrivalSpeed="8.82" duration="220.00" routeLength="497.80" waitSteps="143" timeLoss="171.62" rerouteNo="0" devices="tripinfo_mixed.12" vType="moped" vaporized=""/>
    <tripinfo id="mixed.35" depart="54.00" departLane="beg_1" departPos="2.20" departSpeed="0.00" departDelay="19.00" arrival="239.00" arrivalLane="end_1" arrivalPos="200.00" arrivalSpeed="14.95" duration="185.00" routeLength="497.80" waitSteps="124" timeLoss="151.08" rerouteNo="0" devices="tripinfo_mixed.35" vType="moped" vaporized=""/>
    <tripinfo id="mixed.45" depart="69.00" departLane="beg_0" departPos="5.10" departSpeed="0.00" departDelay="24.00" arrival="239.00" arrivalLane="end_1" arrivalPos="200.00" arrivalSpeed="12.54" duration="170.00" routeLength="494.90" waitSteps="113" timeLoss="133.51" rerouteNo="0" devices="tripinfo_mixed.45" vType="car" vaporized=""/>
    <tripinfo id="mixed.22" depart="33.00" departLane="beg_0" departPos="2.20" departSpeed="0.00" departDelay="11.00" arrival="240.00" arrivalLane="end_0" arrivalPos="200.00" arrivalSpeed="9.49" duration="207.00" routeLength="497.80" waitSteps="136" timeLoss="176.71" rerouteNo="0" devices="tripinfo_mixed.22" vType="moped" vaporized=""/>
    <tripinfo id="mixed.16" depart="23.00" departLane="beg_1" departPos="2.20" departSpeed="0.00" departDelay="7.00" arrival="241.00" arrivalLane="end_0" arrivalPos="200.00" arrivalSpeed="7.66" duration="218.00" routeLength="497.80" waitSteps="140" timeLoss="153.47" rerouteNo="0" devices="tripinfo_mixed.16" vType="moped" vaporized=""/>
    <tripinfo id="mixed.41" depart="61.00" departLane="beg_0" departPos="2.20" departSpeed="0.00" departDelay="20.00" arrival="241.00" arrivalLane="end_0" arrivalPos="200.00" arrivalSpeed="10.20" duration="180.00" routeLength="497.80" waitSteps="118" timeLoss="149.95" rerouteNo="0" devices="tripinfo_mixed.41" vType="moped" vaporized=""/>
    <tripinfo id="mixed.52" depart="78.00" departLane="beg_1" departPos="5.10" departSpeed="0.00" departDelay="26.00" arrival="241.00" arrivalLane="end_1" arrivalPos="200.00" arrivalSpeed="14.29" duration="163.00" routeLength="494.90" waitSteps="106" timeLoss="127.90" rerouteNo="0" devices="tripinfo_mixed.52" vType="car" vaporized=""/>
    <tripinfo id="mixed.28" depart="41.00" departLane="beg_1" departPos="2.20" departSpeed="0.00" departDelay="13.00" arrival="242.00" arrivalLane="end_0" arrivalPos="200.00" arrivalSpeed="9.48" duration="201.00" routeLength="497.80" waitSteps="135" timeLoss="170.42" rerouteNo="0" devices="tripinfo_mixed.28" vType="moped" vaporized=""/>
    <tripinfo id="mixed.54" depart="83.00" departLane="beg_1" departPos="5.10" departSpeed="0.00" departDelay="29.00" arrival="242.00" arrivalLane="end_1" arrivalPos="200.00" arrivalSpeed="14.31" duration="159.00" routeLength="494.90" waitSteps="99" timeLoss="126.64" rerouteNo="0" devices="tripinfo_mixed.54" vType="car" vaporized=""/>
    <tripinfo id="mixed.31" depart="45.00" departLane="beg_1" departPos="2.20" departSpeed="0.00" departDelay="14.00" arrival="243.00" arrivalLane="end_0" arrivalPos="200.00" arrivalSpeed="11.35" duration="198.00" routeLength="497.80" waitSteps="131" timeLoss="167.38" rerouteNo="0" devices="tripinfo_mixed.31" vType="moped" vaporized=""/>
    <tripinfo id="mixed.46" depart="69.00" departLane="beg_1" departPos="2.20" departSpeed="0.00" departDelay="23.00" arrival="243.00" arrivalLane="end_0" arrivalPos="200.00" arrivalSpeed="10.69" duration="174.00" routeLength="497.80" waitSteps="115" timeLoss="143.62" rerouteNo="0" devices="tripinfo_mixed.46" vType="moped" vaporized=""/>
    <tripinfo id="mixed.27" depart="41.00" departLane="beg_1" departPos="2.20" departSpeed="0.00" departDelay="14.00" arrival="243.00" arrivalLane="end_0" arrivalPos="200.00" arrivalSpeed="9.57" duration="202.00" routeLength="497.80" waitSteps="131" timeLoss="154.31" rerouteNo="0" devices="tripinfo_mixed.27" vType="moped" vaporized=""/>
    <tripinfo id="mixed.39" depart="59.00" departLane="beg_1" departPos="2.20" departSpeed="0.00" departDelay="20.00" arrival="245.00" arrivalLane="end_0" arrivalPos="200.00" arrivalSpeed="10.73" duration="186.00" routeLength="497.80" waitSteps="124" timeLoss="155.20" rerouteNo="0" devices="tripinfo_mixed.39" vType="moped" vaporized=""/>
    <tripinfo id="mixed.56" depart="86.00" departLane="beg_1" departPos="5.10" departSpeed="0.00" departDelay="30.00" arrival="245.00" arrivalLane="end_1" arrivalPos="200.00" arrivalSpeed="14.76" duration="159.00" routeLength="494.90" waitSteps="97" timeLoss="124.60" rerouteNo="0" devices="tripinfo_mixed.56" vType="car" vaporized=""/>
    <tripinfo id="mixed.40" depart="61.00" departLane="beg_1" departPos="2.20" departSpeed="0.00" departDelay="21.00" arrival="246.00" arrivalLane="end_0" arrivalPos="200.00" arrivalSpeed="10.38" duration="185.00" routeLength="497.80" waitSteps="123" timeLoss="149.15" rerouteNo="0" devices="tripinfo_mixed.40" vType="moped" vaporized=""/>
    <tripinfo id="mixed.58" depart="89.00" departLane="beg_1" departPos="5.10" departSpeed="0.00" departDelay="31.00" arrival="246.00" arrivalLane="end_1" arrivalPos="200.00" arrivalSpeed="14.45" duration="157.00" routeLength="494.90" waitSteps="98" timeLoss="126.41" rerouteNo="0" devices="tripinfo_mixed.58" vType="car" vaporized=""/>
    <tripinfo id="mixed.43" depart="65.00" departLane="beg_1" departPos="2.20" departSpeed="0.00" departDelay="22.00" arrival="247.00" arrivalLane="end_0" arrivalPos="200.00" arrivalSpeed="11.39" duration="182.00" routeLength="497.80" waitSteps="110" timeLoss="139.22" rerouteNo="0" devices="tripinfo_mixed.43" vType="moped" vaporized=""/>
    <tripinfo id="mixed.60" depart="95.00" departLane="beg_0" departPos="5.10" departSpeed="0.00" departDelay="35.00" arrival="248.00" arrivalLane="end_1" arrivalPos="200.00" arrivalSpeed="13.95" duration="153.00" routeLength="494.90" waitSteps="95" timeLoss="118.04" rerouteNo="0" devices="tripinfo_mixed.60" vType="car" vaporized=""/>
    <tripinfo id="mixed.13" depart="18.00" departLane="beg_0" departPos="2.20" departSpeed="0.00" departDelay="5.00" arrival="249.00" arrivalLane="end_0" arrivalPos="200.00" arrivalSpeed="14.56" duration="231.00" routeLength="497.80" waitSteps="138" timeLoss="200.90" rerouteNo="0" devices="tripinfo_mixed.13" vType="moped" vaporized=""/>
    <tripinfo id="mixed.62" depart="97.00" departLane="beg_1" departPos="2.20" departSpeed="0.00" departDelay="35.00" arrival="251.00" arrivalLane="end_1" arrivalPos="200.00" arrivalSpeed="12.47" duration="154.00" routeLength="497.80" waitSteps="94" timeLoss="113.73" rerouteNo="0" devices="tripinfo_mixed.62" vType="moped" vaporized=""/>
    <tripinfo id="mixed.18" depart="27.00" departLane="beg_0" departPos="5.10" departSpeed="0.00" departDelay="9.00" arrival="253.00" arrivalLane="end_0" arrivalPos="200.00" arrivalSpeed="10.29" duration="226.00" routeLength="494.90" waitSteps="135" timeLoss="177.34" rerouteNo="0" devices="tripinfo_mixed.18" vType="car" vaporized=""/>
    <tripinfo id="mixed.48" depart="72.00" departLane="beg_1" departPos="2.20" departSpeed="0.00" departDelay="24.00" arrival="253.00" arrivalLane="end_1" arrivalPos="200.00" arrivalSpeed="12.78" duration="181.00" routeLength="497.80" waitSteps="104" timeLoss="142.24" rerouteNo="0" devices="tripinfo_mixed.48" vType="moped" vaporized=""/>
    <tripinfo id="mixed.1" depart="1.00" departLane="beg_1" departPos="2.20" departSpeed="0.00" departDelay="0.00" arrival="256.00" arrivalLane="end_0" arrivalPos="200.00" arrivalSpeed="4.82" duration="255.00" routeLength="497.80" waitSteps="142" timeLoss="153.62" rerouteNo="0" devices="tripinfo_mixed.1" vType="moped" vaporized=""/>
    <tripinfo id="mixed.37" depart="58.00" departLane="beg_0" departPos="2.20" departSpeed="0.00" departDelay="21.00" arrival="256.00" arrivalLane="end_1" arrivalPos="200.00" arrivalSpeed="14.21" duration="198.00" routeLength="497.80" waitSteps="121" timeLoss="167.44" rerouteNo="0" devices="tripinfo_mixed.37" vType="moped" vaporized=""/>
    <tripinfo id="mixed.42" depart="63.00" departLane="beg_1" departPos="2.20" departSpeed="0.00" departDelay="21.00" arrival="257.00" arrivalLane="end_0" arrivalPos="200.00" arrivalSpeed="7.77" duration="194.00" routeLength="497.80" waitSteps="108" timeLoss="133.22" rerouteNo="0" devices="tripinfo_mixed.42" vType="moped" vaporized=""/>
    <tripinfo id="mixed.51" depart="76.00" departLane="beg_0" departPos="2.20" departSpeed="0.00" departDelay="25.00" arrival="258.00" arrivalLane="end_1" arrivalPos="200.00" arrivalSpeed="10.72" duration="182.00" routeLength="497.80" waitSteps="95" timeLoss="136.24" rerouteNo="0" devices="tripinfo_mixed.51" vType="moped" vaporized=""/>
    <tripinfo id="mixed.55" depart="83.00" departLane="beg_0" departPos="5.10" departSpeed="0.00" departDelay="28.00" arrival="259.00" arrivalLane="end_0" arrivalPos="200.00" arrivalSpeed="12.75" duration="176.00" routeLength="494.90" waitSteps="97" timeLoss="146.51" rerouteNo="0" devices="tripinfo_mixed.55" vType="car" vaporized=""/>
    <tripinfo id="mixed.64" depart="101.00" departLane="beg_0" departPos="5.10" departSpeed="0.00" departDelay="37.00" arrival="260.00" arrivalLane="end_1" arrivalPos="200.00" arrivalSpeed="13.29" duration="159.00" routeLength="494.90" waitSteps="93" timeLoss="123.49" rerouteNo="0" devices="tripinfo_mixed.64" vType="car" vaporized=""/>
    <tripinfo id="mixed.63" depart="97.00" departLane="beg_0" departPos="2.20" departSpeed="0.00" departDelay="34.00" arrival="262.00" arrivalLane="end_0" arrivalPos="200.00" arrivalSpeed="12.29" duration="165.00" routeLength="497.80" waitSteps="89" timeLoss="125.62" rerouteNo="0" devices="tripinfo_mixed.63" vType="moped" vaporized=""/>
    <tripinfo id="mixed.71" depart="111.00" departLane="beg_1" departPos="5.10" departSpeed="0.00" departDelay="40.00" arrival="262.00" arrivalLane="end_1" arrivalPos="200.00" arrivalSpeed="15.74" duration="151.00" routeLength="494.90" waitSteps="86" timeLoss="122.55" rerouteNo="0" devices="tripinfo_mixed.71" vType="car" vaporized=""/>
    <tripinfo id="mixed.2" depart="2.00" departLane="beg_0" departPos="2.20" departSpeed="0.00" departDelay="0.00" arrival="263.00" arrivalLane="end_0" arrivalPos="200.00" arrivalSpeed="4.43" duration="261.00" routeLength="497.80" waitSteps="137" timeLoss="149.93" rerouteNo="0" devices="tripinfo_mixed.2" vType="moped" vaporized=""/>
    <tripinfo id="mixed.70" depart="111.00" departLane="beg_0" departPos="5.10" departSpeed="0.00" departDelay="41.00" arrival="264.00" arrivalLane="end_0" arrivalPos="200.00" arrivalSpeed="10.90" duration="153.00" routeLength="494.90" waitSteps="84" timeLoss="108.85" rerouteNo="0" devices="tripinfo_mixed.70" vType="car" vaporized=""/>
    <tripinfo id="mixed.75" depart="116.00" departLane="beg_1" departPos="5.10" departSpeed="0.00" departDelay="41.00" arrival="264.00" arrivalLane="end_1" arrivalPos="200.00" arrivalSpeed="11.67" duration="148.00" routeLength="494.90" waitSteps="81" timeLoss="107.50" rerouteNo="0" devices="tripinfo_mixed.75" vType="car" vaporized=""/>
    <tripinfo id="mixed.20" depart="30.00" departLane="beg_0" departPos="5.10" departSpeed="0.00" departDelay="10.00" arrival="265.00" arrivalLane="end_0" arrivalPos="200.00" arrivalSpeed="6.81" duration="235.00" routeLength="494.90" waitSteps="134" timeLoss="206.41" rerouteNo="0" devices="tripinfo_mixed.20" vType="car" vaporized=""/>
    <tripinfo id="mixed.78" depart="123.00" departLane="beg_1" departPos="5.10" departSpeed="0.00" departDelay="45.00" arrival="265.00" arrivalLane="end_1" arrivalPos="200.00" arrivalSpeed="13.78" duration="142.00" routeLength="494.90" waitSteps="74" timeLoss="108.45" rerouteNo="0" devices="tripinfo_mixed.78" vType="car" vaporized=""/>
    <tripinfo id="mixed.81" depart="129.00" departLane="beg_0" departPos="5.10" departSpeed="0.00" departDelay="48.00" arrival="266.00" arrivalLane="end_0" arrivalPos="200.00" arrivalSpeed="14.28" duration="137.00" routeLength="494.90" waitSteps="72" timeLoss="110.99" rerouteNo="0" devices="tripinfo_mixed.81" vType="car" vaporized=""/>
    <tripinfo id="mixed.30" depart="44.00" departLane="beg_0" departPos="2.20" departSpeed="0.00" departDelay="14.00" arrival="267.00" arrivalLane="end_0" arrivalPos="200.00" arrivalSpeed="6.36" duration="223.00" routeLength="497.80" waitSteps="133" timeLoss="190.85" rerouteNo="0" devices="tripinfo_mixed.30" vType="moped" vaporized=""/>
    <tripinfo id="mixed.79" depart="126.00" departLane="beg_0" departPos="5.10" departSpeed="0.00" departDelay="47.00" arrival="267.00" arrivalLane="end_1" arrivalPos="200.00" arrivalSpeed="12.72" duration="141.00" routeLength="494.90" waitSteps="66" timeLoss="103.34" rerouteNo="0" devices="tripinfo_mixed.79" vType="car" vaporized=""/>
    <tripinfo id="mixed.34" depart="54.00" departLane="beg_0" departPos="5.10" departSpeed="0.00" departDelay="20.00" arrival="269.00" arrivalLane="end_0" arrivalPos="200.00" arrivalSpeed="7.71" duration="215.00" routeLength="494.90" waitSteps="129" timeLoss="170.32" rerouteNo="0" devices="tripinfo_mixed.34" vType="car" vaporized=""/>
    <tripinfo id="mixed.84" depart="134.00" departLane="beg_1" departPos="5.10" departSpeed="0.00" departDelay="50.00" arrival="269.00" arrivalLane="end_1" arrivalPos="200.00" arrivalSpeed="15.47" duration="135.00" routeLength="494.90" waitSteps="59" timeLoss="104.44" rerouteNo="0" devices="tripinfo_mixed.84" vType="car" vaporized=""/>
    <tripinfo id="mixed.88" depart="142.00" departLane="beg_1" departPos="5.10" departSpeed="0.00" departDelay="54.00" arrival="269.00" arrivalLane="end_1" arrivalPos="200.00" arrivalSpeed="12.47" duration="127.00" routeLength="494.90" waitSteps="55" timeLoss="90.26" rerouteNo="0" devices="tripinfo_mixed.88" vType="car" vaporized=""/>
    <tripinfo id="mixed.97" depart="156.00" departLane="beg_1" departPos="2.20" departSpeed="0.00" departDelay="59.00" arrival="271.00" arrivalLane="end_0" arrivalPos="200.00" arrivalSpeed="14.02" duration="115.00" routeLength="497.80" waitSteps="48" timeLoss="84.28" rerouteNo="0" devices="tripinfo_mixed.97" vType="moped" vaporized=""/>
    <tripinfo id="mixed.95" depart="154.00" departLane="beg_1" departPos="5.10" departSpeed="0.00" departDelay="59.00" arrival="271.00" arrivalLane="end_1" arrivalPos="200.00" arrivalSpeed="13.01" duration="117.00" routeLength="494.90" waitSteps="49" timeLoss="80.77" rerouteNo="0" devices="tripinfo_mixed.95" vType="car" vaporized=""/>
    <tripinfo id="mixed.36" depart="54.00" departLane="beg_1" departPos="2.20" departSpeed="0.00" departDelay="18.00" arrival="272.00" arrivalLane="end_0" arrivalPos="200.00" arrivalSpeed="6.72" duration="218.00" routeLength="497.80" waitSteps="112" timeLoss="146.47" rerouteNo="0" devices="tripinfo_mixed.36" vType="moped" vaporized=""/>
    <tripinfo id="mixed.98" depart="157.00" departLane="beg_0" departPos="5.10" departSpeed="0.00" departDelay="59.00" arrival="272.00" arrivalLane="end_1" arrivalPos="200.00" arrivalSpeed="13.86" duration="115.00" routeLength="494.90" waitSteps="47" timeLoss="81.34" rerouteNo="0" devices="tripinfo_mixed.98" vType="car" vaporized=""/>
    <tripinfo id="mixed.44" depart="66.00" departLane="beg_0" departPos="5.10" departSpeed="0.00" departDelay="22.00" arrival="273.00" arrivalLane="end_0" arrivalPos="200.00" arrivalSpeed="14.26" duration="207.00" routeLength="494.90" waitSteps="110" timeLoss="172.09" rerouteNo="0" devices="tripinfo_mixed.44" vType="car" vaporized=""/>
    <tripinfo id="mixed.96" depart="154.00" departLane="beg_0" departPos="5.10" departSpeed="0.00" departDelay="58.00" arrival="274.00" arrivalLane="end_1" arrivalPos="200.00" arrivalSpeed="16.10" duration="120.00" routeLength="494.90" waitSteps="51" timeLoss="90.48" rerouteNo="0" devices="tripinfo_mixed.96" vType="car" vaporized=""/>
    <tripinfo id="mixed.49" depart="73.00" departLane="beg_0" departPos="2.20" departSpeed="0.00" departDelay="24.00" arrival="276.00" arrivalLane="end_0" arrivalPos="200.00" arrivalSpeed="10.52" duration="203.00" routeLength="497.80" waitSteps="97" timeLoss="160.10" rerouteNo="0" devices="tripinfo_mixed.49" vType="moped" vaporized=""/>
    <tripinfo id="mixed.92" depart="148.00" departLane="beg_0" departPos="5.10" departSpeed="0.00" departDelay="56.00" arrival="276.00" arrivalLane="end_1" arrivalPos="200.00" arrivalSpeed="14.51" duration="128.00" routeLength="494.90" waitSteps="63" timeLoss="93.22" rerouteNo="0" devices="tripinfo_mixed.92" vType="car" vaporized=""/>
    <tripinfo id="mixed.29" depart="41.00" departLane="beg_0" departPos="2.20" departSpeed="0.00" departDelay="12.00" arrival="277.00" arrivalLane="end_0" arrivalPos="200.00" arrivalSpeed="4.60" duration="236.00" routeLength="497.80" waitSteps="115" timeLoss="129.75" rerouteNo="0" devices="tripinfo_mixed.29" vType="moped" vaporized=""/>
    <tripinfo id="mixed.57" depart="86.00" departLane="beg_0" departPos="2.20" departSpeed="0.00" departDelay="29.00" arrival="278.00" arrivalLane="end_0" arrivalPos="200.00" arrivalSpeed="9.03" duration="192.00" routeLength="497.80" waitSteps="86" timeLoss="138.46" rerouteNo="0" devices="tripinfo_mixed.57" vType="moped" vaporized=""/>
    <tripinfo id="mixed.50" depart="73.00" departLane="beg_0" departPos="2.20" departSpeed="0.00" departDelay="23.00" arrival="279.00" arrivalLane="end_0" arrivalPos="200.00" arrivalSpeed="5.52" duration="206.00" routeLength="497.80" waitSteps="107" timeLoss="148.31" rerouteNo="0" devices="tripinfo_mixed.50" vType="moped" vaporized=""/>
    <tripinfo id="mixed.59" depart="91.00" departLane="beg_1" departPos="2.20" departSpeed="0.00" departDelay="32.00" arrival="279.00" arrivalLane="end_0" arrivalPos="200.00" arrivalSpeed="7.67" duration="188.00" routeLength="497.80" waitSteps="86" timeLoss="126.52" rerouteNo="0" devices="tripinfo_mixed.59" vType="moped" vaporized=""/>
    <tripinfo id="mixed.65" depart="101.00" departLane="beg_1" departPos="2.20" departSpeed="0.00" departDelay="36.00" arrival="280.00" arrivalLane="end_0" arrivalPos="200.00" arrivalSpeed="10.45" duration="179.00" routeLength="497.80" waitSteps="87" timeLoss="131.70" rerouteNo="0" devices="tripinfo_mixed.65" vType="moped" vaporized=""/>
    <tripinfo id="mixed.72" depart="111.00" departLane="beg_1" departPos="2.20" departSpeed="0.00" departDelay="39.00" arrival="280.00" arrivalLane="end_0" arrivalPos="200.00" arrivalSpeed="8.75" duration="169.00" routeLength="497.80" waitSteps="83" timeLoss="139.01" rerouteNo="0" devices="tripinfo_mixed.72" vType="moped" vaporized=""/>
    <tripinfo id="mixed.47" depart="69.00" departLane="beg_0" departPos="2.20" departSpeed="0.00" departDelay="22.00" arrival="281.00" arrivalLane="end_0" arrivalPos="200.00" arrivalSpeed="6.64" duration="212.00" routeLength="497.80" waitSteps="106" timeLoss="175.28" rerouteNo="0" devices="tripinfo_mixed.47" vType="moped" vaporized=""/>
    <tripinfo id="mixed.73" depart="112.00" departLane="beg_0" departPos="2.20" departSpeed="0.00" departDelay="39.00" arrival="281.00" arrivalLane="end_0" arrivalPos="200.00" arrivalSpeed="11.74" duration="169.00" routeLength="497.80" waitSteps="77" timeLoss="138.83" rerouteNo="0" devices="tripinfo_mixed.73" vType="moped" vaporized=""/>
    <tripinfo id="mixed.94" depart="150.00" departLane="beg_0" departPos="2.20" departSpeed="0.00" departDelay="56.00" arrival="282.00" arrivalLane="end_0" arrivalPos="200.00" arrivalSpeed="9.71" duration="132.00" routeLength="497.80" waitSteps="55" timeLoss="99.80" rerouteNo="0" devices="tripinfo_mixed.94" vType="moped" vaporized=""/>
    <tripinfo id="mixed.53" depart="79.00" departLane="beg_0" departPos="2.20" departSpeed="0.00" departDelay="26.00" arrival="282.00" arrivalLane="end_0" arrivalPos="200.00" arrivalSpeed="6.83" duration="203.00" routeLength="497.80" waitSteps="107" timeLoss="152.36" rerouteNo="0" devices="tripinfo_mixed.53" vType="moped" vaporized=""/>
    <tripinfo id="mixed.91" depart="145.00" departLane="beg_1" departPos="2.20" departSpeed="0.00" departDelay="54.00" arrival="282.00" arrivalLane="end_1" arrivalPos="200.00" arrivalSpeed="15.37" duration="137.00" routeLength="497.80" waitSteps="56" timeLoss="104.49" rerouteNo="0" devices="tripinfo_mixed.91" vType="moped" vaporized=""/>
    <tripinfo id="mixed.67" depart="102.00" departLane="beg_1" departPos="2.20" departSpeed="0.00" departDelay="35.00" arrival="283.00" arrivalLane="end_1" arrivalPos="200.00" arrivalSpeed="11.64" duration="181.00" routeLength="497.80" waitSteps="83" timeLoss="150.70" rerouteNo="0" devices="tripinfo_mixed.67" vType="moped" vaporized=""/>
    <tripinfo id="mixed.61" depart="95.00" departLane="beg_1" departPos="2.20" departSpeed="0.00" departDelay="34.00" arrival="284.00" arrivalLane="end_0" arrivalPos="200.00" arrivalSpeed="7.03" duration="189.00" routeLength="497.80" waitSteps="96" timeLoss="158.83" rerouteNo="0" devices="tripinfo_mixed.61" vType="moped" vaporized=""/>
    <tripinfo id="mixed.77" depart="120.00" departLane="beg_0" departPos="2.20" departSpeed="0.00" departDelay="43.00" arrival="284.00" arrivalLane="end_0" arrivalPos="200.00" arrivalSpeed="11.81" duration="164.00" routeLength="497.80" waitSteps="76" timeLoss="134.01" rerouteNo="0" devices="tripinfo_mixed.77" vType="moped" vaporized=""/>
    <tripinfo id="mixed.86" depart="138.00" departLane="beg_1" departPos="2.20" departSpeed="0.00" departDelay="52.00" arrival="285.00" arrivalLane="end_1" arrivalPos="200.00" arrivalSpeed="16.39" duration="147.00" routeLength="497.80" waitSteps="68" timeLoss="116.19" rerouteNo="0" devices="tripinfo_mixed.86" vType="moped" vaporized=""/>
    <tripinfo id="mixed.90" depart="143.00" departLane="beg_1" departPos="2.20" departSpeed="0.00" departDelay="53.00" arrival="286.00" arrivalLane="end_0" arrivalPos="200.00" arrivalSpeed="7.94" duration="143.00" routeLength="497.80" waitSteps="55" timeLoss="95.58" rerouteNo="0" devices="tripinfo_mixed.90" vType="moped" vaporized=""/>