<?xml version="1.0" encoding="UTF-8"?>

<!-- generated on Thu Nov  5 10:15:31 2015 by SUMO Version dev-SVN-r19265
<?xml version="1.0" encoding="UTF-8"?>

<configuration xmlns:xsi="http://www.w3.org/2001/XMLSchema-instance" xsi:noNamespaceSchemaLocation="http://sumo.dlr.de/xsd/sumoConfiguration.xsd">

    <input>
        <net-file value="net.net.xml"/>
        <route-files value="input_routes.rou.xml"/>
    </input>

    <output>
        <fcd-output value="fcd.xml"/>
    </output>

    <time>
        <step-length value="0.5"/>
    </time>

    <processing>
        <lanechange.duration value="6"/>
    </processing>

    <report>
        <xml-validation value="never"/>
        <duration-log.disable value="true"/>
        <no-step-log value="true"/>
    </report>

</configuration>
-->

<fcd-export xmlns:xsi="http://www.w3.org/2001/XMLSchema-instance" xsi:noNamespaceSchemaLocation="http://sumo.dlr.de/xsd/fcd_file.xsd">
    <timestep time="0.00">
        <vehicle id="v0" x="256.34" y="491.75" angle="90.00" type="DEFAULT_VEHTYPE" speed="0.00" pos="5.10" lane="1si_0" slope="0.00"/>
    </timestep>
    <timestep time="0.50">
        <vehicle id="v0" x="256.65" y="491.75" angle="90.00" type="DEFAULT_VEHTYPE" speed="1.30" pos="5.42" lane="1si_0" slope="0.00"/>
    </timestep>
    <timestep time="1.00">
        <vehicle id="v0" x="257.57" y="491.75" angle="90.00" type="DEFAULT_VEHTYPE" speed="2.60" pos="6.40" lane="1si_0" slope="0.00"/>
    </timestep>
    <timestep time="1.50">
        <vehicle id="v0" x="259.11" y="491.75" angle="90.00" type="DEFAULT_VEHTYPE" speed="3.90" pos="8.03" lane="1si_0" slope="0.00"/>
        <vehicle id="v1" x="251.50" y="491.75" angle="129.63" type="thin" speed="0.00" pos="0.00" lane="1si_0" slope="0.00"/>
    </timestep>
    <timestep time="2.00">
        <vehicle id="v0" x="261.27" y="491.75" angle="90.00" type="DEFAULT_VEHTYPE" speed="5.20" pos="10.30" lane="1si_0" slope="0.00"/>
        <vehicle id="v1" x="251.81" y="491.75" angle="129.68" type="thin" speed="1.30" pos="0.33" lane="1si_0" slope="0.00"/>
    </timestep>
    <timestep time="2.50">
        <vehicle id="v0" x="264.05" y="491.75" angle="90.00" type="DEFAULT_VEHTYPE" speed="6.50" pos="13.23" lane="1si_0" slope="0.00"/>
        <vehicle id="v1" x="252.73" y="491.75" angle="129.84" type="thin" speed="2.60" pos="1.30" lane="1si_0" slope="0.00"/>
    </timestep>
    <timestep time="3.00">
        <vehicle id="v0" x="267.44" y="491.75" angle="90.00" type="DEFAULT_VEHTYPE" speed="7.80" pos="16.80" lane="1si_0" slope="0.00"/>
        <vehicle id="v1" x="254.27" y="491.75" angle="130.10" type="thin" speed="3.90" pos="2.92" lane="1si_0" slope="0.00"/>
    </timestep>
    <timestep time="3.50">
        <vehicle id="v0" x="271.44" y="491.75" angle="90.00" type="DEFAULT_VEHTYPE" speed="9.10" pos="21.02" lane="1si_0" slope="0.00"/>
        <vehicle id="v1" x="256.43" y="491.75" angle="90.00" type="thin" speed="5.20" pos="5.20" lane="1si_0" slope="0.00"/>
    </timestep>
    <timestep time="4.00">
        <vehicle id="v0" x="276.07" y="491.75" angle="90.00" type="DEFAULT_VEHTYPE" speed="10.40" pos="25.90" lane="1si_0" slope="0.00"/>
        <vehicle id="v1" x="259.21" y="491.75" angle="90.00" type="thin" speed="6.50" pos="8.12" lane="1si_0" slope="0.00"/>
    </timestep>
    <timestep time="4.50">
        <vehicle id="v0" x="281.31" y="491.75" angle="90.00" type="DEFAULT_VEHTYPE" speed="11.70" pos="31.42" lane="1si_0" slope="0.00"/>
        <vehicle id="v1" x="262.60" y="491.75" angle="90.00" type="thin" speed="7.80" pos="11.70" lane="1si_0" slope="0.00"/>
    </timestep>
    <timestep time="5.00">
        <vehicle id="v0" x="287.17" y="491.75" angle="90.00" type="DEFAULT_VEHTYPE" speed="13.00" pos="37.60" lane="1si_0" slope="0.00"/>
        <vehicle id="v1" x="266.61" y="491.75" angle="90.00" type="thin" speed="9.10" pos="15.92" lane="1si_0" slope="0.00"/>
    </timestep>
    <timestep time="5.50">
        <vehicle id="v0" x="293.54" y="491.75" angle="90.00" type="DEFAULT_VEHTYPE" speed="13.89" pos="44.32" lane="1si_0" slope="0.00"/>
        <vehicle id="v1" x="271.23" y="491.75" angle="90.00" type="thin" speed="10.40" pos="20.80" lane="1si_0" slope="0.00"/>
    </timestep>
    <timestep time="6.00">
        <vehicle id="v0" x="300.13" y="491.75" angle="90.00" type="DEFAULT_VEHTYPE" speed="13.89" pos="51.27" lane="1si_0" slope="0.00"/>
        <vehicle id="v1" x="276.47" y="492.02" angle="89.17" type="thin" speed="11.70" pos="26.32" lane="1si_0" slope="0.00"/>
    </timestep>
    <timestep time="6.50">
        <vehicle id="v0" x="310.01" y="491.75" angle="90.00" type="DEFAULT_VEHTYPE" speed="13.89" pos="61.69" lane="1si_0" slope="0.00"/>
        <vehicle id="v1" x="285.41" y="492.28" angle="88.33" type="thin" speed="13.00" pos="35.75" lane="1si_0" slope="0.00"/>
    </timestep>
    <timestep time="7.00">
        <vehicle id="v0" x="316.60" y="491.75" angle="90.00" type="DEFAULT_VEHTYPE" speed="13.89" pos="68.63" lane="1si_0" slope="0.00"/>
        <vehicle id="v1" x="292.00" y="492.55" angle="87.50" type="thin" speed="13.89" pos="42.70" lane="1si_0" slope="0.00"/>
    </timestep>
    <timestep time="7.50">
        <vehicle id="v0" x="323.19" y="491.75" angle="90.00" type="DEFAULT_VEHTYPE" speed="13.89" pos="75.57" lane="1si_0" slope="0.00"/>
        <vehicle id="v1" x="298.59" y="492.82" angle="86.67" type="thin" speed="13.89" pos="49.64" lane="1si_0" slope="0.00"/>
    </timestep>
    <timestep time="8.00">
        <vehicle id="v0" x="329.78" y="491.75" angle="90.00" type="DEFAULT_VEHTYPE" speed="13.89" pos="82.52" lane="1si_0" slope="0.00"/>
        <vehicle id="v1" x="305.18" y="493.08" angle="85.83" type="thin" speed="13.89" pos="56.59" lane="1si_0" slope="0.00"/>
    </timestep>
    <timestep time="8.50">
        <vehicle id="v0" x="336.37" y="491.75" angle="90.00" type="DEFAULT_VEHTYPE" speed="13.89" pos="89.46" lane="1si_0" slope="0.00"/>
        <vehicle id="v1" x="311.76" y="493.35" angle="85.00" type="thin" speed="13.89" pos="63.53" lane="1si_0" slope="0.00"/>
    </timestep>
    <timestep time="9.00">
        <vehicle id="v0" x="342.95" y="491.75" angle="90.00" type="DEFAULT_VEHTYPE" speed="13.89" pos="96.41" lane="1si_0" slope="0.00"/>
        <vehicle id="v1" x="318.35" y="493.72" angle="85.83" type="thin" speed="13.89" pos="70.47" lane="1si_1" slope="0.00"/>
    </timestep>
    <timestep time="9.50">
        <vehicle id="v0" x="349.54" y="491.75" angle="90.00" type="DEFAULT_VEHTYPE" speed="13.89" pos="103.35" lane="1si_0" slope="0.00"/>
        <vehicle id="v1" x="324.94" y="493.98" angle="86.67" type="thin" speed="13.89" pos="77.42" lane="1si_1" slope="0.00"/>
    </timestep>
    <timestep time="10.00">
        <vehicle id="v0" x="356.13" y="491.75" angle="90.00" type="DEFAULT_VEHTYPE" speed="13.89" pos="110.30" lane="1si_0" slope="0.00"/>
        <vehicle id="v1" x="331.53" y="494.25" angle="87.50" type="thin" speed="13.89" pos="84.36" lane="1si_1" slope="0.00"/>
    </timestep>
    <timestep time="10.50">
        <vehicle id="v0" x="362.72" y="491.75" angle="90.00" type="DEFAULT_VEHTYPE" speed="13.89" pos="117.24" lane="1si_0" slope="0.00"/>
        <vehicle id="v1" x="338.12" y="494.52" angle="88.33" type="thin" speed="13.89" pos="91.31" lane="1si_1" slope="0.00"/>
    </timestep>
    <timestep time="11.00">
        <vehicle id="v0" x="366.01" y="491.75" angle="90.00" type="DEFAULT_VEHTYPE" speed="13.89" pos="120.72" lane="1si_0" slope="0.00"/>
        <vehicle id="v1" x="341.41" y="494.78" angle="89.17" type="thin" speed="13.89" pos="94.78" lane="1si_1" slope="0.00"/>
    </timestep>
    <timestep time="11.50">
        <vehicle id="v0" x="372.21" y="491.75" angle="90.00" type="DEFAULT_VEHTYPE" speed="12.23" pos="127.25" lane="1si_0" slope="0.00"/>
        <vehicle id="v1" x="348.00" y="495.05" angle="90.00" type="thin" speed="13.89" pos="101.73" lane="1si_1" slope="0.00"/>
    </timestep>
    <timestep time="12.00">
        <vehicle id="v0" x="377.57" y="491.75" angle="90.00" type="DEFAULT_VEHTYPE" speed="10.36" pos="132.90" lane="1si_0" slope="0.00"/>
        <vehicle id="v1" x="354.59" y="495.05" angle="90.00" type="thin" speed="13.89" pos="108.67" lane="1si_1" slope="0.00"/>
    </timestep>
    <timestep time="12.50">
        <vehicle id="v0" x="382.05" y="491.75" angle="90.00" type="DEFAULT_VEHTYPE" speed="8.54" pos="137.62" lane="1si_0" slope="0.00"/>
        <vehicle id="v1" x="361.17" y="495.05" angle="90.00" type="thin" speed="13.89" pos="115.62" lane="1si_1" slope="0.00"/>
    </timestep>
    <timestep time="13.00">
        <vehicle id="v0" x="385.69" y="491.75" angle="90.00" type="DEFAULT_VEHTYPE" speed="6.80" pos="141.46" lane="1si_0" slope="0.00"/>
        <vehicle id="v1" x="367.76" y="495.05" angle="90.00" type="thin" speed="13.89" pos="122.56" lane="1si_1" slope="0.00"/>
    </timestep>
    <timestep time="13.50">
        <vehicle id="v0" x="388.53" y="491.75" angle="90.00" type="DEFAULT_VEHTYPE" speed="5.17" pos="144.45" lane="1si_0" slope="0.00"/>
        <vehicle id="v1" x="374.35" y="495.05" angle="90.00" type="thin" speed="13.89" pos="129.51" lane="1si_1" slope="0.00"/>
    </timestep>
    <timestep time="14.00">
        <vehicle id="v0" x="390.62" y="491.75" angle="90.00" type="DEFAULT_VEHTYPE" speed="3.68" pos="146.66" lane="1si_0" slope="0.00"/>
        <vehicle id="v1" x="380.94" y="495.05" angle="90.00" type="thin" speed="13.89" pos="136.45" lane="1si_1" slope="0.00"/>
    </timestep>
    <timestep time="14.50">
        <vehicle id="v0" x="392.06" y="491.75" angle="90.00" type="DEFAULT_VEHTYPE" speed="2.38" pos="148.18" lane="1si_0" slope="0.00"/>
        <vehicle id="v1" x="387.53" y="495.05" angle="90.00" type="thin" speed="13.89" pos="143.40" lane="1si_1" slope="0.00"/>
    </timestep>
    <timestep time="15.00">
        <vehicle id="v0" x="392.95" y="491.75" angle="90.00" type="DEFAULT_VEHTYPE" speed="1.36" pos="149.11" lane="1si_0" slope="0.00"/>
        <vehicle id="v1" x="394.11" y="495.05" angle="90.00" type="thin" speed="13.89" pos="150.34" lane="1si_1" slope="0.00"/>
    </timestep>
    <timestep time="15.50">
        <vehicle id="v0" x="393.27" y="491.75" angle="90.00" type="DEFAULT_VEHTYPE" speed="0.00" pos="149.45" lane="1si_0" slope="0.00"/>
        <vehicle id="v1" x="400.70" y="495.05" angle="90.00" type="thin" speed="13.89" pos="157.29" lane="1si_1" slope="0.00"/>
    </timestep>
    <timestep time="16.00">
        <vehicle id="v0" x="393.27" y="491.75" angle="90.00" type="DEFAULT_VEHTYPE" speed="0.00" pos="149.45" lane="1si_0" slope="0.00"/>
        <vehicle id="v1" x="407.29" y="495.05" angle="90.00" type="thin" speed="13.89" pos="164.23" lane="1si_1" slope="0.00"/>
    </timestep>
    <timestep time="16.50">
        <vehicle id="v0" x="393.27" y="491.75" angle="90.00" type="DEFAULT_VEHTYPE" speed="0.00" pos="149.45" lane="1si_0" slope="0.00"/>
        <vehicle id="v1" x="413.88" y="495.05" angle="90.00" type="thin" speed="13.89" pos="171.18" lane="1si_1" slope="0.00"/>
    </timestep>
    <timestep time="17.00">
        <vehicle id="v0" x="393.27" y="491.75" angle="90.00" type="DEFAULT_VEHTYPE" speed="0.00" pos="149.45" lane="1si_0" slope="0.00"/>
        <vehicle id="v1" x="420.47" y="495.05" angle="90.00" type="thin" speed="13.89" pos="178.12" lane="1si_1" slope="0.00"/>
    </timestep>
    <timestep time="17.50">
        <vehicle id="v0" x="393.27" y="491.75" angle="90.00" type="DEFAULT_VEHTYPE" speed="0.00" pos="149.45" lane="1si_0" slope="0.00"/>
        <vehicle id="v1" x="427.06" y="495.05" angle="90.00" type="thin" speed="13.89" pos="185.07" lane="1si_1" slope="0.00"/>
    </timestep>
    <timestep time="18.00">
        <vehicle id="v0" x="393.27" y="491.75" angle="90.00" type="DEFAULT_VEHTYPE" speed="0.00" pos="149.45" lane="1si_0" slope="0.00"/>
        <vehicle id="v1" x="433.64" y="495.05" angle="90.00" type="thin" speed="13.89" pos="192.01" lane="1si_1" slope="0.00"/>
    </timestep>
    <timestep time="18.50">
        <vehicle id="v0" x="393.27" y="491.75" angle="90.00" type="DEFAULT_VEHTYPE" speed="0.00" pos="149.45" lane="1si_0" slope="0.00"/>
        <vehicle id="v1" x="440.23" y="495.05" angle="90.00" type="thin" speed="13.89" pos="198.96" lane="1si_1" slope="0.00"/>
    </timestep>
    <timestep time="19.00">
        <vehicle id="v0" x="393.27" y="491.75" angle="90.00" type="DEFAULT_VEHTYPE" speed="0.00" pos="149.45" lane="1si_0" slope="0.00"/>
        <vehicle id="v1" x="446.82" y="495.05" angle="90.00" type="thin" speed="13.89" pos="205.90" lane="1si_1" slope="0.00"/>
    </timestep>
    <timestep time="19.50">
        <vehicle id="v0" x="393.27" y="491.75" angle="90.00" type="DEFAULT_VEHTYPE" speed="0.00" pos="149.45" lane="1si_0" slope="0.00"/>
        <vehicle id="v1" x="453.41" y="495.05" angle="90.00" type="thin" speed="13.89" pos="212.85" lane="1si_1" slope="0.00"/>
    </timestep>
    <timestep time="20.00">
        <vehicle id="v0" x="393.27" y="491.75" angle="90.00" type="DEFAULT_VEHTYPE" speed="0.00" pos="149.45" lane="1si_0" slope="0.00"/>
        <vehicle id="v1" x="460.00" y="495.05" angle="90.00" type="thin" speed="13.89" pos="219.79" lane="1si_1" slope="0.00"/>
    </timestep>
    <timestep time="20.50">
        <vehicle id="v0" x="393.27" y="491.75" angle="90.00" type="DEFAULT_VEHTYPE" speed="0.00" pos="149.45" lane="1si_0" slope="0.00"/>
        <vehicle id="v1" x="466.58" y="495.05" angle="90.00" type="thin" speed="13.89" pos="226.74" lane="1si_1" slope="0.00"/>
    </timestep>
    <timestep time="21.00">
        <vehicle id="v0" x="393.27" y="491.75" angle="90.00" type="DEFAULT_VEHTYPE" speed="0.00" pos="149.45" lane="1si_0" slope="0.00"/>
        <vehicle id="v1" x="473.17" y="495.05" angle="90.00" type="thin" speed="13.89" pos="233.68" lane="1si_1" slope="0.00"/>
    </timestep>
    <timestep time="21.50">
        <vehicle id="v0" x="393.27" y="491.75" angle="90.00" type="DEFAULT_VEHTYPE" speed="0.00" pos="149.45" lane="1si_0" slope="0.00"/>
        <vehicle id="v1" x="479.76" y="495.05" angle="90.00" type="thin" speed="13.89" pos="240.63" lane="1si_1" slope="0.00"/>
    </timestep>
    <timestep time="22.00">
        <vehicle id="v0" x="393.27" y="491.75" angle="90.00" type="DEFAULT_VEHTYPE" speed="0.00" pos="149.45" lane="1si_0" slope="0.00"/>
        <vehicle id="v1" x="486.35" y="495.05" angle="90.00" type="thin" speed="13.89" pos="247.57" lane="1si_1" slope="0.00"/>
    </timestep>
    <timestep time="22.50">
        <vehicle id="v0" x="393.27" y="491.75" angle="90.00" type="DEFAULT_VEHTYPE" speed="0.00" pos="149.45" lane="1si_0" slope="0.00"/>
    </timestep>
    <timestep time="23.00">
        <vehicle id="v0" x="393.27" y="491.75" angle="90.00" type="DEFAULT_VEHTYPE" speed="0.00" pos="149.45" lane="1si_0" slope="0.00"/>
    </timestep>
    <timestep time="23.50">
        <vehicle id="v0" x="393.27" y="491.75" angle="90.00" type="DEFAULT_VEHTYPE" speed="0.00" pos="149.45" lane="1si_0" slope="0.00"/>
    </timestep>
    <timestep time="24.00">
        <vehicle id="v0" x="393.27" y="491.75" angle="90.00" type="DEFAULT_VEHTYPE" speed="0.00" pos="149.45" lane="1si_0" slope="0.00"/>
    </timestep>
    <timestep time="24.50">
        <vehicle id="v0" x="393.27" y="491.75" angle="90.00" type="DEFAULT_VEHTYPE" speed="0.00" pos="149.45" lane="1si_0" slope="0.00"/>
    </timestep>
    <timestep time="25.00">
        <vehicle id="v0" x="393.27" y="491.75" angle="90.00" type="DEFAULT_VEHTYPE" speed="0.00" pos="149.45" lane="1si_0" slope="0.00"/>
    </timestep>
    <timestep time="25.50">
        <vehicle id="v0" x="393.43" y="491.75" angle="90.00" type="DEFAULT_VEHTYPE" speed="0.66" pos="149.62" lane="1si_0" slope="0.00"/>
    </timestep>
    <timestep time="26.00">
        <vehicle id="v0" x="394.05" y="491.75" angle="90.00" type="DEFAULT_VEHTYPE" speed="1.96" pos="150.28" lane="1si_0" slope="0.00"/>
    </timestep>
    <timestep time="26.50">
        <vehicle id="v0" x="395.29" y="491.75" angle="90.00" type="DEFAULT_VEHTYPE" speed="3.26" pos="151.58" lane="1si_0" slope="0.00"/>
    </timestep>
    <timestep time="27.00">
        <vehicle id="v0" x="397.15" y="491.75" angle="90.00" type="DEFAULT_VEHTYPE" speed="4.56" pos="153.54" lane="1si_0" slope="0.00"/>
    </timestep>
    <timestep time="27.50">
        <vehicle id="v0" x="399.62" y="491.75" angle="90.00" type="DEFAULT_VEHTYPE" speed="5.86" pos="156.15" lane="1si_0" slope="0.00"/>
    </timestep>
    <timestep time="28.00">
        <vehicle id="v0" x="402.71" y="491.75" angle="90.00" type="DEFAULT_VEHTYPE" speed="7.16" pos="159.40" lane="1si_0" slope="0.00"/>
    </timestep>
    <timestep time="28.50">
        <vehicle id="v0" x="406.41" y="491.75" angle="90.00" type="DEFAULT_VEHTYPE" speed="8.46" pos="163.31" lane="1si_0" slope="0.00"/>
    </timestep>
    <timestep time="29.00">
        <vehicle id="v0" x="410.74" y="491.75" angle="90.00" type="DEFAULT_VEHTYPE" speed="9.76" pos="167.87" lane="1si_0" slope="0.00"/>
    </timestep>
    <timestep time="29.50">
        <vehicle id="v0" x="415.68" y="491.75" angle="90.00" type="DEFAULT_VEHTYPE" speed="11.06" pos="173.07" lane="1si_0" slope="0.00"/>
    </timestep>
    <timestep time="30.00">
        <vehicle id="v0" x="421.23" y="491.75" angle="90.00" type="DEFAULT_VEHTYPE" speed="12.36" pos="178.93" lane="1si_0" slope="0.00"/>
    </timestep>
    <timestep time="30.50">
        <vehicle id="v0" x="427.40" y="491.75" angle="90.00" type="DEFAULT_VEHTYPE" speed="13.66" pos="185.44" lane="1si_0" slope="0.00"/>
    </timestep>
    <timestep time="31.00">
        <vehicle id="v0" x="433.94" y="491.75" angle="90.00" type="DEFAULT_VEHTYPE" speed="13.89" pos="192.32" lane="1si_0" slope="0.00"/>
    </timestep>
    <timestep time="31.50">
        <vehicle id="v0" x="440.53" y="491.75" angle="90.00" type="DEFAULT_VEHTYPE" speed="13.89" pos="199.27" lane="1si_0" slope="0.00"/>
    </timestep>
    <timestep time="32.00">
        <vehicle id="v0" x="447.12" y="491.75" angle="90.00" type="DEFAULT_VEHTYPE" speed="13.89" pos="206.21" lane="1si_0" slope="0.00"/>
    </timestep>
    <timestep time="32.50">
        <vehicle id="v0" x="453.70" y="491.75" angle="90.00" type="DEFAULT_VEHTYPE" speed="13.89" pos="213.16" lane="1si_0" slope="0.00"/>
    </timestep>
    <timestep time="33.00">
        <vehicle id="v0" x="460.29" y="491.75" angle="90.00" type="DEFAULT_VEHTYPE" speed="13.89" pos="220.10" lane="1si_0" slope="0.00"/>
    </timestep>
    <timestep time="33.50">
        <vehicle id="v0" x="466.88" y="491.75" angle="90.00" type="DEFAULT_VEHTYPE" speed="13.89" pos="227.05" lane="1si_0" slope="0.00"/>
    </timestep>
    <timestep time="34.00">
        <vehicle id="v0" x="473.47" y="491.75" angle="90.00" type="DEFAULT_VEHTYPE" speed="13.89" pos="233.99" lane="1si_0" slope="0.00"/>
    </timestep>
    <timestep time="34.50">
        <vehicle id="v0" x="480.06" y="491.75" angle="90.00" type="DEFAULT_VEHTYPE" speed="13.89" pos="240.94" lane="1si_0" slope="0.00"/>
    </timestep>
    <timestep time="35.00">
        <vehicle id="v0" x="486.64" y="491.75" angle="90.00" type="DEFAULT_VEHTYPE" speed="13.89" pos="247.88" lane="1si_0" slope="0.00"/>
    </timestep>
    <timestep time="35.50"/>
</fcd-export>
