<?xml version="1.0" encoding="UTF-8"?>

<!-- generated on Wed Jun  1 10:58:51 2016 by SUMO Version dev-SVN-r20832
<?xml version="1.0" encoding="UTF-8"?>

<configuration xmlns:xsi="http://www.w3.org/2001/XMLSchema-instance" xsi:noNamespaceSchemaLocation="http://sumo.dlr.de/xsd/sumoConfiguration.xsd">

    <input>
        <net-file value="net.net.xml"/>
        <route-files value="input_routes.rou.xml"/>
        <additional-files value="input_additional.add.xml"/>
    </input>

    <time>
        <begin value="0"/>
        <end value="1000"/>
    </time>

    <report>
        <xml-validation value="never"/>
        <duration-log.disable value="true"/>
        <no-step-log value="true"/>
    </report>

</configuration>
-->

<meandata xmlns:xsi="http://www.w3.org/2001/XMLSchema-instance" xsi:noNamespaceSchemaLocation="http://sumo.dlr.de/xsd/meandata_file.xsd">
    <interval begin="0.00" end="900.00" id="dump_900">
        <edge id="1fi" sampledSeconds="4982.48" traveltime="24.67" density="22.28" occupancy="11.14" waitingTime="0.00" speed="10.07" departed="77" arrived="13" entered="126" left="180" laneChangedFrom="0" laneChangedTo="0"/>
        <edge id="1o" sampledSeconds="6312.16" traveltime="47.10" density="14.35" occupancy="7.18" waitingTime="0.00" speed="10.38" departed="0" arrived="0" entered="137" left="126" laneChangedFrom="0" laneChangedTo="0"/>
        <edge id="1si" sampledSeconds="14376.17" traveltime="87.14" density="67.36" occupancy="11.23" waitingTime="7894.00" speed="2.72" departed="0" arrived="0" entered="180" left="145" laneChangedFrom="0" laneChangedTo="0"/>
        <edge id="2fi" sampledSeconds="5724.48" traveltime="24.60" density="25.60" occupancy="12.80" waitingTime="0.00" speed="10.10" departed="79" arrived="53" entered="154" left="171" laneChangedFrom="0" laneChangedTo="0"/>
        <edge id="2o" sampledSeconds="7640.36" traveltime="47.03" density="17.37" occupancy="8.69" waitingTime="0.00" speed="10.39" departed="0" arrived="0" entered="165" left="154" laneChangedFrom="0" laneChangedTo="0"/>
        <edge id="2si" sampledSeconds="8186.94" traveltime="47.92" density="38.36" occupancy="6.39" waitingTime="3963.00" speed="4.95" departed="0" arrived="0" entered="171" left="163" laneChangedFrom="0" laneChangedTo="0"/>
        <edge id="3fi" sampledSeconds="6212.04" traveltime="25.09" density="27.78" occupancy="13.89" waitingTime="0.00" speed="9.90" departed="143" arrived="81" entered="105" left="158" laneChangedFrom="0" laneChangedTo="0"/>
        <edge id="3o" sampledSeconds="5284.21" traveltime="47.05" density="12.02" occupancy="6.01" waitingTime="0.00" speed="10.39" departed="0" arrived="0" entered="118" left="105" laneChangedFrom="0" laneChangedTo="0"/>
        <edge id="3si" sampledSeconds="7422.83" traveltime="46.59" density="34.78" occupancy="5.80" waitingTime="3642.00" speed="5.09" departed="0" arrived="0" entered="158" left="144" laneChangedFrom="0" laneChangedTo="0"/>
        <edge id="4fi" sampledSeconds="3834.91" traveltime="23.83" density="17.15" occupancy="8.57" waitingTime="0.00" speed="10.43" departed="0" arrived="0" entered="158" left="157" laneChangedFrom="0" laneChangedTo="0"/>
        <edge id="4o" sampledSeconds="7759.73" traveltime="46.99" density="17.64" occupancy="8.82" waitingTime="0.00" speed="10.40" departed="0" arrived="0" entered="169" left="158" laneChangedFrom="0" laneChangedTo="0"/>
        <edge id="4si" sampledSeconds="8002.75" traveltime="51.51" density="37.50" occupancy="6.25" waitingTime="3936.00" speed="4.60" departed="0" arrived="0" entered="157" left="138" laneChangedFrom="0" laneChangedTo="0"/>
    </interval>
    <interval begin="900.00" end="1000.00" id="dump_900">
        <edge id="1fi" sampledSeconds="1172.20" traveltime="32.44" density="47.17" occupancy="23.59" waitingTime="63.00" speed="7.66" departed="13" arrived="7" entered="26" left="21" laneChangedFrom="0" laneChangedTo="0"/>
        <edge id="1o" sampledSeconds="1134.41" traveltime="47.24" density="23.22" occupancy="11.61" waitingTime="0.00" speed="10.34" departed="0" arrived="0" entered="24" left="26" laneChangedFrom="0" laneChangedTo="0"/>
        <edge id="1si" sampledSeconds="3549.70" traveltime="135.06" density="149.68" occupancy="24.95" waitingTime="1829.00" speed="1.76" departed="0" arrived="0" entered="20" left="28" laneChangedFrom="0" laneChangedTo="0"/>
        <edge id="2fi" sampledSeconds="836.09" traveltime="24.62" density="33.65" occupancy="16.82" waitingTime="0.00" speed="10.09" departed="10" arrived="10" entered="23" left="23" laneChangedFrom="0" laneChangedTo="0"/>
        <edge id="2o" sampledSeconds="1117.21" traveltime="47.05" density="22.86" occupancy="11.43" waitingTime="0.00" speed="10.39" departed="0" arrived="0" entered="23" left="23" laneChangedFrom="0" laneChangedTo="0"/>
        <edge id="2si" sampledSeconds="1355.62" traveltime="56.70" density="57.16" occupancy="9.53" waitingTime="700.00" speed="4.18" departed="0" arrived="0" entered="23" left="18" laneChangedFrom="0" laneChangedTo="0"/>
        <edge id="3fi" sampledSeconds="904.76" traveltime="24.70" density="36.41" occupancy="18.20" waitingTime="0.00" speed="10.06" departed="13" arrived="13" entered="22" left="24" laneChangedFrom="0" laneChangedTo="0"/>
        <edge id="3o" sampledSeconds="1180.19" traveltime="47.00" density="24.15" occupancy="12.08" waitingTime="0.00" speed="10.40" departed="0" arrived="0" entered="25" left="22" laneChangedFrom="0" laneChangedTo="0"/>
        <edge id="3si" sampledSeconds="1022.99" traveltime="45.18" density="43.14" occupancy="7.19" waitingTime="430.00" speed="5.25" departed="0" arrived="0" entered="24" left="27" laneChangedFrom="0" laneChangedTo="0"/>
        <edge id="4fi" sampledSeconds="476.14" traveltime="23.80" density="19.16" occupancy="9.58" waitingTime="0.00" speed="10.44" departed="0" arrived="0" entered="21" left="20" laneChangedFrom="0" laneChangedTo="0"/>
        <edge id="4o" sampledSeconds="1053.58" traveltime="46.95" density="21.56" occupancy="10.78" waitingTime="0.00" speed="10.41" departed="0" arrived="0" entered="23" left="21" laneChangedFrom="0" laneChangedTo="0"/>
        <edge id="4si" sampledSeconds="1104.22" traveltime="49.02" density="46.56" occupancy="7.76" waitingTime="522.00" speed="4.84" departed="0" arrived="0" entered="20" left="27" laneChangedFrom="0" laneChangedTo="0"/>
    </interval>
</meandata>
