<?xml version="1.0" encoding="UTF-8"?>

<!-- generated on Tue Apr  5 13:44:43 2016 by SUMO Version dev-SVN-r20343
<?xml version="1.0" encoding="UTF-8"?>

<configuration xmlns:xsi="http://www.w3.org/2001/XMLSchema-instance" xsi:noNamespaceSchemaLocation="http://sumo.dlr.de/xsd/sumoConfiguration.xsd">

    <input>
        <net-file value="net.net.xml"/>
        <route-files value="input_routes.rou.xml"/>
        <additional-files value="input_additional.add.xml"/>
    </input>

    <time>
        <begin value="0"/>
        <end value="1000"/>
    </time>

    <report>
        <xml-validation value="never"/>
        <duration-log.disable value="true"/>
        <no-step-log value="true"/>
    </report>

</configuration>
-->

<meandata xmlns:xsi="http://www.w3.org/2001/XMLSchema-instance" xsi:noNamespaceSchemaLocation="http://sumo.dlr.de/xsd/meandata_file.xsd">
    <interval begin="0.00" end="60.00" id="dump_60">
        <edge id="1fi" sampledSeconds="0.00" departed="0" arrived="0" entered="0" left="0" laneChangedFrom="0" laneChangedTo="0"/>
        <edge id="1o" sampledSeconds="0.00" departed="0" arrived="0" entered="0" left="0" laneChangedFrom="0" laneChangedTo="0"/>
        <edge id="1si" sampledSeconds="0.00" departed="0" arrived="0" entered="0" left="0" laneChangedFrom="0" laneChangedTo="0"/>
        <edge id="2fi" sampledSeconds="0.00" departed="0" arrived="0" entered="0" left="0" laneChangedFrom="0" laneChangedTo="0"/>
        <edge id="2o" sampledSeconds="0.00" departed="0" arrived="0" entered="0" left="0" laneChangedFrom="0" laneChangedTo="0"/>
        <edge id="2si" sampledSeconds="0.00" departed="0" arrived="0" entered="0" left="0" laneChangedFrom="0" laneChangedTo="0"/>
        <edge id="3fi" sampledSeconds="0.00" departed="0" arrived="0" entered="0" left="0" laneChangedFrom="0" laneChangedTo="0"/>
        <edge id="3o" sampledSeconds="0.00" departed="0" arrived="0" entered="0" left="0" laneChangedFrom="0" laneChangedTo="0"/>
        <edge id="3si" sampledSeconds="0.00" departed="0" arrived="0" entered="0" left="0" laneChangedFrom="0" laneChangedTo="0"/>
        <edge id="4fi" sampledSeconds="0.00" departed="0" arrived="0" entered="0" left="0" laneChangedFrom="0" laneChangedTo="0"/>
        <edge id="4o" sampledSeconds="0.00" departed="0" arrived="0" entered="0" left="0" laneChangedFrom="0" laneChangedTo="0"/>
        <edge id="4si" sampledSeconds="0.00" departed="0" arrived="0" entered="0" left="0" laneChangedFrom="0" laneChangedTo="0"/>
    </interval>
    <interval begin="60.00" end="120.00" id="dump_60">
        <edge id="1fi" sampledSeconds="28.00" traveltime="28.51" density="1.88" occupancy="0.94" waitingTime="0.00" speed="8.71" departed="2" arrived="0" entered="0" left="0" laneChangedFrom="0" laneChangedTo="0"/>
        <edge id="1o" sampledSeconds="0.00" departed="0" arrived="0" entered="0" left="0" laneChangedFrom="0" laneChangedTo="0"/>
        <edge id="1si" sampledSeconds="0.00" departed="0" arrived="0" entered="0" left="0" laneChangedFrom="0" laneChangedTo="0"/>
        <edge id="2fi" sampledSeconds="28.00" traveltime="28.32" density="1.88" occupancy="0.94" waitingTime="0.00" speed="8.77" departed="2" arrived="0" entered="0" left="0" laneChangedFrom="0" laneChangedTo="0"/>
        <edge id="2o" sampledSeconds="0.00" departed="0" arrived="0" entered="0" left="0" laneChangedFrom="0" laneChangedTo="0"/>
        <edge id="2si" sampledSeconds="0.00" departed="0" arrived="0" entered="0" left="0" laneChangedFrom="0" laneChangedTo="0"/>
        <edge id="3fi" sampledSeconds="50.00" traveltime="28.20" density="3.35" occupancy="1.68" waitingTime="0.00" speed="8.81" departed="4" arrived="0" entered="0" left="0" laneChangedFrom="0" laneChangedTo="0"/>
        <edge id="3o" sampledSeconds="0.00" departed="0" arrived="0" entered="0" left="0" laneChangedFrom="0" laneChangedTo="0"/>
        <edge id="3si" sampledSeconds="0.00" departed="0" arrived="0" entered="0" left="0" laneChangedFrom="0" laneChangedTo="0"/>
        <edge id="4fi" sampledSeconds="0.00" departed="0" arrived="0" entered="0" left="0" laneChangedFrom="0" laneChangedTo="0"/>
        <edge id="4o" sampledSeconds="0.00" departed="0" arrived="0" entered="0" left="0" laneChangedFrom="0" laneChangedTo="0"/>
        <edge id="4si" sampledSeconds="0.00" departed="0" arrived="0" entered="0" left="0" laneChangedFrom="0" laneChangedTo="0"/>
    </interval>
    <interval begin="120.00" end="180.00" id="dump_60">
        <edge id="1fi" sampledSeconds="160.56" traveltime="26.09" density="10.77" occupancy="5.38" waitingTime="0.00" speed="9.53" departed="6" arrived="0" entered="0" left="6" laneChangedFrom="0" laneChangedTo="0"/>
        <edge id="1o" sampledSeconds="66.52" traveltime="46.95" density="2.27" occupancy="1.13" waitingTime="0.00" speed="10.41" departed="0" arrived="0" entered="3" left="0" laneChangedFrom="0" laneChangedTo="0"/>
        <edge id="1si" sampledSeconds="90.66" traveltime="18.85" density="6.37" occupancy="1.06" waitingTime="0.00" speed="12.58" departed="0" arrived="0" entered="6" left="4" laneChangedFrom="0" laneChangedTo="0"/>
        <edge id="2fi" sampledSeconds="158.99" traveltime="25.95" density="10.66" occupancy="5.33" waitingTime="0.00" speed="9.58" departed="6" arrived="0" entered="0" left="6" laneChangedFrom="0" laneChangedTo="0"/>
        <edge id="2o" sampledSeconds="0.00" departed="0" arrived="0" entered="0" left="0" laneChangedFrom="0" laneChangedTo="0"/>
        <edge id="2si" sampledSeconds="93.79" traveltime="19.31" density="6.59" occupancy="1.10" waitingTime="3.00" speed="12.28" departed="0" arrived="0" entered="6" left="3" laneChangedFrom="0" laneChangedTo="0"/>
        <edge id="3fi" sampledSeconds="316.64" traveltime="26.01" density="21.24" occupancy="10.62" waitingTime="0.00" speed="9.56" departed="12" arrived="0" entered="0" left="11" laneChangedFrom="0" laneChangedTo="0"/>
        <edge id="3o" sampledSeconds="0.00" departed="0" arrived="0" entered="0" left="0" laneChangedFrom="0" laneChangedTo="0"/>
        <edge id="3si" sampledSeconds="312.46" traveltime="37.39" density="21.96" occupancy="3.66" waitingTime="132.00" speed="6.34" departed="0" arrived="0" entered="11" left="0" laneChangedFrom="0" laneChangedTo="0"/>
        <edge id="4fi" sampledSeconds="0.00" departed="0" arrived="0" entered="0" left="0" laneChangedFrom="0" laneChangedTo="0"/>
        <edge id="4o" sampledSeconds="60.19" traveltime="46.90" density="2.05" occupancy="1.03" waitingTime="0.00" speed="10.42" departed="0" arrived="0" entered="4" left="0" laneChangedFrom="0" laneChangedTo="0"/>
        <edge id="4si" sampledSeconds="0.00" departed="0" arrived="0" entered="0" left="0" laneChangedFrom="0" laneChangedTo="0"/>
    </interval>
    <interval begin="180.00" end="240.00" id="dump_60">
        <edge id="1fi" sampledSeconds="232.42" traveltime="25.36" density="15.59" occupancy="7.79" waitingTime="0.00" speed="9.80" departed="6" arrived="0" entered="3" left="9" laneChangedFrom="0" laneChangedTo="0"/>
        <edge id="1o" sampledSeconds="108.51" traveltime="47.40" density="3.70" occupancy="1.85" waitingTime="0.00" speed="10.31" departed="0" arrived="0" entered="6" left="3" laneChangedFrom="0" laneChangedTo="0"/>
        <edge id="1si" sampledSeconds="301.69" traveltime="45.82" density="21.20" occupancy="3.53" waitingTime="128.00" speed="5.18" departed="0" arrived="0" entered="8" left="3" laneChangedFrom="0" laneChangedTo="0"/>
        <edge id="2fi" sampledSeconds="172.84" traveltime="25.31" density="11.59" occupancy="5.80" waitingTime="0.00" speed="9.82" departed="5" arrived="0" entered="5" left="6" laneChangedFrom="0" laneChangedTo="0"/>
        <edge id="2o" sampledSeconds="314.78" traveltime="46.96" density="10.74" occupancy="5.37" waitingTime="0.00" speed="10.41" departed="0" arrived="0" entered="7" left="5" laneChangedFrom="0" laneChangedTo="0"/>
        <edge id="2si" sampledSeconds="301.46" traveltime="52.04" density="21.19" occupancy="3.53" waitingTime="154.00" speed="4.56" departed="0" arrived="0" entered="6" left="7" laneChangedFrom="0" laneChangedTo="0"/>
        <edge id="3fi" sampledSeconds="317.78" traveltime="25.85" density="21.31" occupancy="10.66" waitingTime="0.00" speed="9.61" departed="12" arrived="0" entered="0" left="13" laneChangedFrom="0" laneChangedTo="0"/>
        <edge id="3o" sampledSeconds="0.00" departed="0" arrived="0" entered="0" left="0" laneChangedFrom="0" laneChangedTo="0"/>
        <edge id="3si" sampledSeconds="352.60" traveltime="29.21" density="24.78" occupancy="4.13" waitingTime="79.00" speed="8.12" departed="0" arrived="0" entered="12" left="14" laneChangedFrom="0" laneChangedTo="0"/>
        <edge id="4fi" sampledSeconds="102.88" traveltime="23.82" density="6.90" occupancy="3.45" waitingTime="0.00" speed="10.43" departed="0" arrived="0" entered="8" left="2" laneChangedFrom="0" laneChangedTo="0"/>
        <edge id="4o" sampledSeconds="435.06" traveltime="46.85" density="14.84" occupancy="7.42" waitingTime="0.00" speed="10.43" departed="0" arrived="0" entered="7" left="8" laneChangedFrom="0" laneChangedTo="0"/>
        <edge id="4si" sampledSeconds="25.75" traveltime="19.51" density="1.81" occupancy="0.30" waitingTime="0.00" speed="12.15" departed="0" arrived="0" entered="2" left="0" laneChangedFrom="0" laneChangedTo="0"/>
    </interval>
    <interval begin="240.00" end="300.00" id="dump_60">
        <edge id="1fi" sampledSeconds="266.07" traveltime="24.98" density="17.85" occupancy="8.92" waitingTime="0.00" speed="9.95" departed="6" arrived="0" entered="8" left="6" laneChangedFrom="0" laneChangedTo="0"/>
        <edge id="1o" sampledSeconds="391.33" traveltime="47.04" density="13.35" occupancy="6.67" waitingTime="0.00" speed="10.39" departed="0" arrived="0" entered="3" left="8" laneChangedFrom="0" laneChangedTo="0"/>
        <edge id="1si" sampledSeconds="389.71" traveltime="57.31" density="27.39" occupancy="4.56" waitingTime="174.00" speed="4.14" departed="0" arrived="0" entered="7" left="6" laneChangedFrom="0" laneChangedTo="0"/>
        <edge id="2fi" sampledSeconds="328.48" traveltime="24.84" density="22.03" occupancy="11.02" waitingTime="0.00" speed="10.00" departed="7" arrived="0" entered="4" left="13" laneChangedFrom="0" laneChangedTo="0"/>
        <edge id="2o" sampledSeconds="277.31" traveltime="47.23" density="9.46" occupancy="4.73" waitingTime="0.00" speed="10.35" departed="0" arrived="0" entered="12" left="4" laneChangedFrom="0" laneChangedTo="0"/>
        <edge id="2si" sampledSeconds="428.35" traveltime="39.17" density="30.10" occupancy="5.02" waitingTime="178.00" speed="6.05" departed="0" arrived="0" entered="13" left="2" laneChangedFrom="0" laneChangedTo="0"/>
        <edge id="3fi" sampledSeconds="316.45" traveltime="25.75" density="21.22" occupancy="10.61" waitingTime="0.00" speed="9.65" departed="12" arrived="0" entered="0" left="12" laneChangedFrom="0" laneChangedTo="0"/>
        <edge id="3o" sampledSeconds="102.86" traveltime="46.90" density="3.51" occupancy="1.75" waitingTime="0.00" speed="10.42" departed="0" arrived="0" entered="6" left="0" laneChangedFrom="0" laneChangedTo="0"/>
        <edge id="3si" sampledSeconds="592.59" traveltime="48.62" density="41.65" occupancy="6.94" waitingTime="287.00" speed="4.88" departed="0" arrived="0" entered="12" left="18" laneChangedFrom="0" laneChangedTo="0"/>
        <edge id="4fi" sampledSeconds="173.47" traveltime="23.84" density="11.63" occupancy="5.82" waitingTime="0.00" speed="10.42" departed="0" arrived="0" entered="5" left="9" laneChangedFrom="0" laneChangedTo="0"/>
        <edge id="4o" sampledSeconds="455.15" traveltime="46.97" density="15.52" occupancy="7.76" waitingTime="0.00" speed="10.40" departed="0" arrived="0" entered="15" left="6" laneChangedFrom="0" laneChangedTo="0"/>
        <edge id="4si" sampledSeconds="323.85" traveltime="35.18" density="22.76" occupancy="3.79" waitingTime="110.00" speed="6.74" departed="0" arrived="0" entered="9" left="9" laneChangedFrom="0" laneChangedTo="0"/>
    </interval>
    <interval begin="300.00" end="360.00" id="dump_60">
        <edge id="1fi" sampledSeconds="271.15" traveltime="25.11" density="18.19" occupancy="9.09" waitingTime="0.00" speed="9.89" departed="6" arrived="0" entered="1" left="15" laneChangedFrom="0" laneChangedTo="0"/>
        <edge id="1o" sampledSeconds="275.17" traveltime="46.91" density="9.39" occupancy="4.69" waitingTime="0.00" speed="10.42" departed="0" arrived="0" entered="9" left="1" laneChangedFrom="0" laneChangedTo="0"/>
        <edge id="1si" sampledSeconds="653.28" traveltime="45.21" density="45.91" occupancy="7.65" waitingTime="207.00" speed="5.25" departed="0" arrived="0" entered="15" left="16" laneChangedFrom="0" laneChangedTo="0"/>
        <edge id="2fi" sampledSeconds="404.34" traveltime="24.54" density="27.12" occupancy="13.56" waitingTime="0.00" speed="10.13" departed="6" arrived="2" entered="13" left="12" laneChangedFrom="0" laneChangedTo="0"/>
        <edge id="2o" sampledSeconds="746.48" traveltime="47.23" density="25.46" occupancy="12.73" waitingTime="0.00" speed="10.35" departed="0" arrived="0" entered="13" left="13" laneChangedFrom="0" laneChangedTo="0"/>
        <edge id="2si" sampledSeconds="453.84" traveltime="47.29" density="31.90" occupancy="5.32" waitingTime="213.00" speed="5.01" departed="0" arrived="0" entered="12" left="16" laneChangedFrom="0" laneChangedTo="0"/>
        <edge id="3fi" sampledSeconds="423.96" traveltime="25.33" density="28.43" occupancy="14.22" waitingTime="0.00" speed="9.81" departed="12" arrived="5" entered="7" left="9" laneChangedFrom="0" laneChangedTo="0"/>
        <edge id="3o" sampledSeconds="230.81" traveltime="47.42" density="7.87" occupancy="3.94" waitingTime="0.00" speed="10.30" departed="0" arrived="0" entered="1" left="7" laneChangedFrom="0" laneChangedTo="0"/>
        <edge id="3si" sampledSeconds="543.15" traveltime="58.75" density="38.17" occupancy="6.36" waitingTime="329.00" speed="4.04" departed="0" arrived="0" entered="10" left="0" laneChangedFrom="0" laneChangedTo="0"/>
        <edge id="4fi" sampledSeconds="365.88" traveltime="23.83" density="24.54" occupancy="12.27" waitingTime="0.00" speed="10.43" departed="0" arrived="0" entered="14" left="14" laneChangedFrom="0" laneChangedTo="0"/>
        <edge id="4o" sampledSeconds="642.59" traveltime="47.02" density="21.92" occupancy="10.96" waitingTime="0.00" speed="10.39" departed="0" arrived="0" entered="14" left="13" laneChangedFrom="0" laneChangedTo="0"/>
        <edge id="4si" sampledSeconds="274.10" traveltime="32.53" density="19.26" occupancy="3.21" waitingTime="85.00" speed="7.29" departed="0" arrived="0" entered="14" left="2" laneChangedFrom="0" laneChangedTo="0"/>
    </interval>
    <interval begin="360.00" end="420.00" id="dump_60">
        <edge id="1fi" sampledSeconds="378.18" traveltime="24.67" density="25.36" occupancy="12.68" waitingTime="0.00" speed="10.07" departed="6" arrived="0" entered="9" left="15" laneChangedFrom="0" laneChangedTo="0"/>
        <edge id="1o" sampledSeconds="184.97" traveltime="46.95" density="6.31" occupancy="3.15" waitingTime="0.00" speed="10.41" departed="0" arrived="0" entered="5" left="9" laneChangedFrom="0" laneChangedTo="0"/>
        <edge id="1si" sampledSeconds="693.02" traveltime="63.86" density="48.70" occupancy="8.12" waitingTime="393.00" speed="3.71" departed="0" arrived="0" entered="15" left="7" laneChangedFrom="0" laneChangedTo="0"/>
        <edge id="2fi" sampledSeconds="517.82" traveltime="24.31" density="34.73" occupancy="17.36" waitingTime="0.00" speed="10.22" departed="5" arrived="9" entered="15" left="13" laneChangedFrom="0" laneChangedTo="0"/>
        <edge id="2o" sampledSeconds="676.58" traveltime="46.94" density="23.08" occupancy="11.54" waitingTime="0.00" speed="10.41" departed="0" arrived="0" entered="17" left="15" laneChangedFrom="0" laneChangedTo="0"/>
        <edge id="2si" sampledSeconds="900.66" traveltime="66.24" density="63.30" occupancy="10.55" waitingTime="496.00" speed="3.58" departed="0" arrived="0" entered="13" left="15" laneChangedFrom="0" laneChangedTo="0"/>
        <edge id="3fi" sampledSeconds="383.68" traveltime="25.46" density="25.73" occupancy="12.87" waitingTime="0.00" speed="9.76" departed="11" arrived="2" entered="3" left="14" laneChangedFrom="0" laneChangedTo="0"/>
        <edge id="3o" sampledSeconds="384.08" traveltime="47.22" density="13.10" occupancy="6.55" waitingTime="0.00" speed="10.35" departed="0" arrived="0" entered="9" left="3" laneChangedFrom="0" laneChangedTo="0"/>
        <edge id="3si" sampledSeconds="428.21" traveltime="32.33" density="30.09" occupancy="5.02" waitingTime="113.00" speed="7.34" departed="0" arrived="0" entered="14" left="17" laneChangedFrom="0" laneChangedTo="0"/>
        <edge id="4fi" sampledSeconds="323.16" traveltime="23.85" density="21.67" occupancy="10.84" waitingTime="0.00" speed="10.42" departed="0" arrived="0" entered="17" left="11" laneChangedFrom="0" laneChangedTo="0"/>
        <edge id="4o" sampledSeconds="692.26" traveltime="46.97" density="23.61" occupancy="11.81" waitingTime="0.00" speed="10.40" departed="0" arrived="0" entered="14" left="17" laneChangedFrom="0" laneChangedTo="0"/>
        <edge id="4si" sampledSeconds="599.45" traveltime="45.38" density="42.13" occupancy="7.02" waitingTime="245.00" speed="5.23" departed="0" arrived="0" entered="11" left="13" laneChangedFrom="0" laneChangedTo="0"/>
    </interval>
    <interval begin="420.00" end="480.00" id="dump_60">
        <edge id="1fi" sampledSeconds="257.09" traveltime="25.13" density="17.24" occupancy="8.62" waitingTime="0.00" speed="9.89" departed="6" arrived="0" entered="7" left="6" laneChangedFrom="0" laneChangedTo="0"/>
        <edge id="1o" sampledSeconds="485.75" traveltime="46.83" density="16.57" occupancy="8.28" waitingTime="0.00" speed="10.43" departed="0" arrived="0" entered="10" left="7" laneChangedFrom="0" laneChangedTo="0"/>
        <edge id="1si" sampledSeconds="757.05" traveltime="144.06" density="53.20" occupancy="8.87" waitingTime="409.00" speed="1.65" departed="0" arrived="0" entered="6" left="7" laneChangedFrom="0" laneChangedTo="0"/>
        <edge id="2fi" sampledSeconds="535.29" traveltime="24.47" density="35.90" occupancy="17.95" waitingTime="0.00" speed="10.16" departed="7" arrived="1" entered="16" left="18" laneChangedFrom="0" laneChangedTo="0"/>
        <edge id="2o" sampledSeconds="666.78" traveltime="47.16" density="22.74" occupancy="11.37" waitingTime="0.00" speed="10.36" departed="0" arrived="0" entered="14" left="16" laneChangedFrom="0" laneChangedTo="0"/>
        <edge id="2si" sampledSeconds="605.19" traveltime="41.43" density="42.53" occupancy="7.09" waitingTime="251.00" speed="5.72" departed="0" arrived="0" entered="18" left="6" laneChangedFrom="0" laneChangedTo="0"/>
        <edge id="3fi" sampledSeconds="513.80" traveltime="25.15" density="34.46" occupancy="17.23" waitingTime="0.00" speed="9.88" departed="13" arrived="9" entered="7" left="10" laneChangedFrom="0" laneChangedTo="0"/>
        <edge id="3o" sampledSeconds="324.04" traveltime="46.82" density="11.05" occupancy="5.53" waitingTime="0.00" speed="10.44" departed="0" arrived="0" entered="11" left="7" laneChangedFrom="0" laneChangedTo="0"/>
        <edge id="3si" sampledSeconds="575.72" traveltime="62.41" density="40.46" occupancy="6.74" waitingTime="324.00" speed="3.80" departed="0" arrived="0" entered="10" left="16" laneChangedFrom="0" laneChangedTo="0"/>
        <edge id="4fi" sampledSeconds="347.56" traveltime="23.93" density="23.31" occupancy="11.66" waitingTime="0.00" speed="10.38" departed="0" arrived="0" entered="14" left="13" laneChangedFrom="0" laneChangedTo="0"/>
        <edge id="4o" sampledSeconds="789.17" traveltime="47.28" density="26.92" occupancy="13.46" waitingTime="0.00" speed="10.34" departed="0" arrived="0" entered="17" left="14" laneChangedFrom="0" laneChangedTo="0"/>
        <edge id="4si" sampledSeconds="895.14" traveltime="74.89" density="62.91" occupancy="10.48" waitingTime="499.00" speed="3.17" departed="0" arrived="0" entered="12" left="18" laneChangedFrom="0" laneChangedTo="0"/>
    </interval>
    <interval begin="480.00" end="540.00" id="dump_60">
        <edge id="1fi" sampledSeconds="419.83" traveltime="24.61" density="28.16" occupancy="14.08" waitingTime="0.00" speed="10.10" departed="6" arrived="0" entered="8" left="19" laneChangedFrom="0" laneChangedTo="0"/>
        <edge id="1o" sampledSeconds="464.01" traveltime="46.92" density="15.83" occupancy="7.91" waitingTime="0.00" speed="10.42" departed="0" arrived="0" entered="9" left="8" laneChangedFrom="0" laneChangedTo="0"/>
        <edge id="1si" sampledSeconds="1059.05" traveltime="77.73" density="74.43" occupancy="12.40" waitingTime="530.00" speed="3.05" departed="0" arrived="0" entered="19" left="15" laneChangedFrom="0" laneChangedTo="0"/>
        <edge id="2fi" sampledSeconds="499.12" traveltime="24.60" density="33.48" occupancy="16.74" waitingTime="0.00" speed="10.10" departed="5" arrived="8" entered="14" left="12" laneChangedFrom="0" laneChangedTo="0"/>
        <edge id="2o" sampledSeconds="819.00" traveltime="47.06" density="27.93" occupancy="13.97" waitingTime="0.00" speed="10.38" departed="0" arrived="0" entered="14" left="14" laneChangedFrom="0" laneChangedTo="0"/>
        <edge id="2si" sampledSeconds="693.20" traveltime="55.94" density="48.72" occupancy="8.12" waitingTime="332.00" speed="4.24" departed="0" arrived="0" entered="12" left="22" laneChangedFrom="0" laneChangedTo="0"/>
        <edge id="3fi" sampledSeconds="521.60" traveltime="24.98" density="34.98" occupancy="17.49" waitingTime="0.00" speed="9.95" departed="10" arrived="6" entered="11" left="15" laneChangedFrom="0" laneChangedTo="0"/>
        <edge id="3o" sampledSeconds="353.42" traveltime="47.14" density="12.05" occupancy="6.03" waitingTime="0.00" speed="10.37" departed="0" arrived="0" entered="5" left="11" laneChangedFrom="0" laneChangedTo="0"/>
        <edge id="3si" sampledSeconds="789.74" traveltime="56.37" density="55.50" occupancy="9.25" waitingTime="466.00" speed="4.21" departed="0" arrived="0" entered="15" left="0" laneChangedFrom="0" laneChangedTo="0"/>
        <edge id="4fi" sampledSeconds="406.09" traveltime="23.81" density="27.24" occupancy="13.62" waitingTime="0.00" speed="10.44" departed="0" arrived="0" entered="13" left="21" laneChangedFrom="0" laneChangedTo="0"/>
        <edge id="4o" sampledSeconds="642.59" traveltime="46.97" density="21.92" occupancy="10.96" waitingTime="0.00" speed="10.40" departed="0" arrived="0" entered="15" left="13" laneChangedFrom="0" laneChangedTo="0"/>
        <edge id="4si" sampledSeconds="825.28" traveltime="57.97" density="58.00" occupancy="9.67" waitingTime="445.00" speed="4.09" departed="0" arrived="0" entered="22" left="4" laneChangedFrom="0" laneChangedTo="0"/>
    </interval>
    <interval begin="540.00" end="600.00" id="dump_60">
        <edge id="1fi" sampledSeconds="395.72" traveltime="24.45" density="26.54" occupancy="13.27" waitingTime="0.00" speed="10.16" departed="5" arrived="0" entered="14" left="16" laneChangedFrom="0" laneChangedTo="0"/>
        <edge id="1o" sampledSeconds="708.23" traveltime="47.10" density="24.16" occupancy="12.08" waitingTime="0.00" speed="10.38" departed="0" arrived="0" entered="18" left="14" laneChangedFrom="0" laneChangedTo="0"/>
        <edge id="1si" sampledSeconds="1420.59" traveltime="106.22" density="99.84" occupancy="16.64" waitingTime="930.00" speed="2.23" departed="0" arrived="0" entered="16" left="13" laneChangedFrom="0" laneChangedTo="0"/>
        <edge id="2fi" sampledSeconds="539.20" traveltime="24.48" density="36.16" occupancy="18.08" waitingTime="0.00" speed="10.15" departed="6" arrived="9" entered="15" left="15" laneChangedFrom="0" laneChangedTo="0"/>
        <edge id="2o" sampledSeconds="695.84" traveltime="47.22" density="23.73" occupancy="11.87" waitingTime="0.00" speed="10.35" departed="0" arrived="0" entered="18" left="15" laneChangedFrom="0" laneChangedTo="0"/>
        <edge id="2si" sampledSeconds="1010.38" traveltime="68.78" density="71.01" occupancy="11.83" waitingTime="554.00" speed="3.45" departed="0" arrived="0" entered="15" left="15" laneChangedFrom="0" laneChangedTo="0"/>
        <edge id="3fi" sampledSeconds="507.72" traveltime="25.38" density="34.05" occupancy="17.03" waitingTime="0.00" speed="9.79" departed="13" arrived="2" entered="7" left="17" laneChangedFrom="0" laneChangedTo="0"/>
        <edge id="3o" sampledSeconds="511.33" traveltime="47.29" density="17.44" occupancy="8.72" waitingTime="0.00" speed="10.33" departed="0" arrived="0" entered="14" left="7" laneChangedFrom="0" laneChangedTo="0"/>
        <edge id="3si" sampledSeconds="584.33" traveltime="39.72" density="41.07" occupancy="6.84" waitingTime="182.00" speed="5.97" departed="0" arrived="0" entered="17" left="22" laneChangedFrom="0" laneChangedTo="0"/>
        <edge id="4fi" sampledSeconds="362.19" traveltime="23.91" density="24.29" occupancy="12.15" waitingTime="0.00" speed="10.39" departed="0" arrived="0" entered="19" left="11" laneChangedFrom="0" laneChangedTo="0"/>
        <edge id="4o" sampledSeconds="802.46" traveltime="46.98" density="27.37" occupancy="13.68" waitingTime="0.00" speed="10.40" departed="0" arrived="0" entered="15" left="19" laneChangedFrom="0" laneChangedTo="0"/>
        <edge id="4si" sampledSeconds="719.44" traveltime="49.52" density="50.56" occupancy="8.43" waitingTime="256.00" speed="4.79" departed="0" arrived="0" entered="11" left="22" laneChangedFrom="0" laneChangedTo="0"/>
    </interval>
    <interval begin="600.00" end="660.00" id="dump_60">
        <edge id="1fi" sampledSeconds="557.36" traveltime="24.53" density="37.38" occupancy="18.69" waitingTime="0.00" speed="10.13" departed="7" arrived="4" entered="16" left="16" laneChangedFrom="0" laneChangedTo="0"/>
        <edge id="1o" sampledSeconds="664.74" traveltime="47.16" density="22.67" occupancy="11.34" waitingTime="0.00" speed="10.36" departed="0" arrived="0" entered="15" left="16" laneChangedFrom="0" laneChangedTo="0"/>
        <edge id="1si" sampledSeconds="1377.61" traveltime="133.84" density="96.82" occupancy="16.14" waitingTime="642.00" speed="1.77" departed="0" arrived="0" entered="16" left="8" laneChangedFrom="0" laneChangedTo="0"/>
        <edge id="2fi" sampledSeconds="540.61" traveltime="24.34" density="36.26" occupancy="18.13" waitingTime="0.00" speed="10.21" departed="5" arrived="0" entered="17" left="20" laneChangedFrom="0" laneChangedTo="0"/>
        <edge id="2o" sampledSeconds="720.92" traveltime="47.07" density="24.59" occupancy="12.29" waitingTime="0.00" speed="10.38" departed="0" arrived="0" entered="15" left="17" laneChangedFrom="0" laneChangedTo="0"/>
        <edge id="2si" sampledSeconds="724.58" traveltime="47.24" density="50.92" occupancy="8.49" waitingTime="304.00" speed="5.02" departed="0" arrived="0" entered="19" left="8" laneChangedFrom="0" laneChangedTo="0"/>
        <edge id="3fi" sampledSeconds="568.54" traveltime="24.75" density="38.13" occupancy="19.07" waitingTime="0.00" speed="10.04" departed="9" arrived="9" entered="13" left="13" laneChangedFrom="0" laneChangedTo="0"/>
        <edge id="3o" sampledSeconds="683.70" traveltime="46.87" density="23.32" occupancy="11.66" waitingTime="0.00" speed="10.43" departed="0" arrived="0" entered="15" left="13" laneChangedFrom="0" laneChangedTo="0"/>
        <edge id="3si" sampledSeconds="868.87" traveltime="64.62" density="61.06" occupancy="10.18" waitingTime="490.00" speed="3.67" departed="0" arrived="0" entered="13" left="21" laneChangedFrom="0" laneChangedTo="0"/>
        <edge id="4fi" sampledSeconds="371.07" traveltime="23.80" density="24.89" occupancy="12.44" waitingTime="0.00" speed="10.44" departed="0" arrived="0" entered="14" left="15" laneChangedFrom="0" laneChangedTo="0"/>
        <edge id="4o" sampledSeconds="716.13" traveltime="46.95" density="24.43" occupancy="12.21" waitingTime="0.00" speed="10.41" departed="0" arrived="0" entered="16" left="14" laneChangedFrom="0" laneChangedTo="0"/>
        <edge id="4si" sampledSeconds="1010.84" traveltime="73.80" density="71.04" occupancy="11.84" waitingTime="563.00" speed="3.21" departed="0" arrived="0" entered="14" left="21" laneChangedFrom="0" laneChangedTo="0"/>
    </interval>
    <interval begin="660.00" end="720.00" id="dump_60">
        <edge id="1fi" sampledSeconds="516.88" traveltime="24.54" density="34.67" occupancy="17.33" waitingTime="0.00" speed="10.13" departed="6" arrived="0" entered="14" left="21" laneChangedFrom="0" laneChangedTo="0"/>
        <edge id="1o" sampledSeconds="692.44" traveltime="47.14" density="23.62" occupancy="11.81" waitingTime="0.00" speed="10.37" departed="0" arrived="0" entered="10" left="14" laneChangedFrom="0" laneChangedTo="0"/>
        <edge id="1si" sampledSeconds="1724.33" traveltime="123.30" density="121.18" occupancy="20.20" waitingTime="928.00" speed="1.92" departed="0" arrived="0" entered="21" left="22" laneChangedFrom="0" laneChangedTo="0"/>
        <edge id="2fi" sampledSeconds="534.40" traveltime="24.26" density="35.84" occupancy="17.92" waitingTime="0.00" speed="10.24" departed="6" arrived="9" entered="16" left="13" laneChangedFrom="0" laneChangedTo="0"/>
        <edge id="2o" sampledSeconds="833.93" traveltime="47.04" density="28.44" occupancy="14.22" waitingTime="0.00" speed="10.39" departed="0" arrived="0" entered="14" left="16" laneChangedFrom="0" laneChangedTo="0"/>
        <edge id="2si" sampledSeconds="805.81" traveltime="63.37" density="56.63" occupancy="9.44" waitingTime="395.00" speed="3.74" departed="0" arrived="0" entered="14" left="23" laneChangedFrom="0" laneChangedTo="0"/>
        <edge id="3fi" sampledSeconds="533.18" traveltime="24.49" density="35.76" occupancy="17.88" waitingTime="0.00" speed="10.15" departed="8" arrived="12" entered="14" left="10" laneChangedFrom="0" laneChangedTo="0"/>