<?xml version="1.0" encoding="UTF-8"?>

<!-- generated on Wed Jun  1 10:58:51 2016 by SUMO Version dev-SVN-r20832
<?xml version="1.0" encoding="UTF-8"?>

<configuration xmlns:xsi="http://www.w3.org/2001/XMLSchema-instance" xsi:noNamespaceSchemaLocation="http://sumo.dlr.de/xsd/sumoConfiguration.xsd">

    <input>
        <net-file value="net.net.xml"/>
        <route-files value="input_routes.rou.xml"/>
        <additional-files value="input_additional.add.xml"/>
    </input>

    <time>
        <begin value="0"/>
        <end value="1000"/>
    </time>

    <report>
        <xml-validation value="never"/>
        <duration-log.disable value="true"/>
        <no-step-log value="true"/>
    </report>

</configuration>
-->

<meandata xmlns:xsi="http://www.w3.org/2001/XMLSchema-instance" xsi:noNamespaceSchemaLocation="http://sumo.dlr.de/xsd/meandata_file.xsd">
    <interval begin="0.00" end="300.00" id="dump_300">
        <edge id="1fi" sampledSeconds="686.21" traveltime="25.49" density="9.20" occupancy="4.60" waitingTime="0.00" speed="9.75" departed="20" arrived="0" entered="11" left="21" laneChangedFrom="0" laneChangedTo="0"/>
        <edge id="1o" sampledSeconds="566.22" traveltime="47.11" density="3.86" occupancy="1.93" waitingTime="0.00" speed="10.37" departed="0" arrived="0" entered="12" left="11" laneChangedFrom="0" laneChangedTo="0"/>
        <edge id="1si" sampledSeconds="783.03" traveltime="40.07" density="11.01" occupancy="1.83" waitingTime="304.00" speed="5.92" departed="0" arrived="0" entered="21" left="13" laneChangedFrom="0" laneChangedTo="0"/>
        <edge id="2fi" sampledSeconds="688.48" traveltime="25.34" density="9.24" occupancy="4.62" waitingTime="0.00" speed="9.81" departed="20" arrived="0" entered="9" left="25" laneChangedFrom="0" laneChangedTo="0"/>
        <edge id="2o" sampledSeconds="590.12" traveltime="46.99" density="4.03" occupancy="2.01" waitingTime="0.00" speed="10.40" departed="0" arrived="0" entered="19" left="9" laneChangedFrom="0" laneChangedTo="0"/>
        <edge id="2si" sampledSeconds="823.40" traveltime="35.87" density="11.57" occupancy="1.93" waitingTime="341.00" speed="6.61" departed="0" arrived="0" entered="25" left="12" laneChangedFrom="0" laneChangedTo="0"/>
        <edge id="3fi" sampledSeconds="1000.09" traveltime="26.03" density="13.42" occupancy="6.71" waitingTime="0.00" speed="9.55" departed="40" arrived="0" entered="0" left="35" laneChangedFrom="0" laneChangedTo="0"/>
        <edge id="3o" sampledSeconds="102.88" traveltime="47.01" density="0.70" occupancy="0.35" waitingTime="0.00" speed="10.40" departed="0" arrived="0" entered="6" left="0" laneChangedFrom="0" laneChangedTo="0"/>
        <edge id="3si" sampledSeconds="1257.38" traveltime="36.99" density="17.67" occupancy="2.95" waitingTime="498.00" speed="6.41" departed="0" arrived="0" entered="35" left="32" laneChangedFrom="0" laneChangedTo="0"/>
        <edge id="4fi" sampledSeconds="275.96" traveltime="23.81" density="3.70" occupancy="1.85" waitingTime="0.00" speed="10.43" departed="0" arrived="0" entered="13" left="11" laneChangedFrom="0" laneChangedTo="0"/>
        <edge id="4o" sampledSeconds="951.49" traveltime="46.98" density="6.49" occupancy="3.25" waitingTime="0.00" speed="10.40" departed="0" arrived="0" entered="26" left="13" laneChangedFrom="0" laneChangedTo="0"/>
        <edge id="4si" sampledSeconds="349.54" traveltime="31.50" density="4.91" occupancy="0.82" waitingTime="113.00" speed="7.53" departed="0" arrived="0" entered="11" left="10" laneChangedFrom="0" laneChangedTo="0"/>
    </interval>
    <interval begin="300.00" end="600.00" id="dump_300">
        <edge id="1fi" sampledSeconds="1744.47" traveltime="24.71" density="23.40" occupancy="11.70" waitingTime="0.00" speed="10.06" departed="29" arrived="0" entered="40" left="72" laneChangedFrom="0" laneChangedTo="0"/>
        <edge id="1o" sampledSeconds="2187.64" traveltime="47.04" density="14.92" occupancy="7.46" waitingTime="0.00" speed="10.39" departed="0" arrived="0" entered="52" left="40" laneChangedFrom="0" laneChangedTo="0"/>
        <edge id="1si" sampledSeconds="4580.08" traveltime="68.59" density="64.38" occupancy="10.73" waitingTime="2470.00" speed="3.46" departed="0" arrived="0" entered="71" left="58" laneChangedFrom="0" laneChangedTo="0"/>
        <edge id="2fi" sampledSeconds="2451.12" traveltime="24.53" density="32.88" occupancy="16.44" waitingTime="0.00" speed="10.13" departed="29" arrived="29" entered="71" left="69" laneChangedFrom="0" laneChangedTo="0"/>
        <edge id="2o" sampledSeconds="3575.02" traveltime="47.12" density="24.39" occupancy="12.19" waitingTime="0.00" speed="10.37" departed="0" arrived="0" entered="77" left="71" laneChangedFrom="0" laneChangedTo="0"/>
        <edge id="2si" sampledSeconds="3445.70" traveltime="48.88" density="48.43" occupancy="8.07" waitingTime="1670.00" speed="4.85" departed="0" arrived="0" entered="69" left="75" laneChangedFrom="0" laneChangedTo="0"/>
        <edge id="3fi" sampledSeconds="2342.20" traveltime="25.22" density="31.42" occupancy="15.71" waitingTime="0.00" speed="9.85" departed="58" arrived="24" entered="35" left="65" laneChangedFrom="0" laneChangedTo="0"/>
        <edge id="3o" sampledSeconds="1798.86" traveltime="47.04" density="12.27" occupancy="6.14" waitingTime="0.00" speed="10.39" departed="0" arrived="0" entered="40" left="36" laneChangedFrom="0" laneChangedTo="0"/>
        <edge id="3si" sampledSeconds="2946.46" traveltime="45.70" density="41.41" occupancy="6.90" waitingTime="1446.00" speed="5.19" departed="0" arrived="0" entered="65" left="55" laneChangedFrom="0" laneChangedTo="0"/>
        <edge id="4fi" sampledSeconds="1776.85" traveltime="23.85" density="23.83" occupancy="11.92" waitingTime="0.00" speed="10.42" departed="0" arrived="0" entered="76" left="70" laneChangedFrom="0" laneChangedTo="0"/>
        <edge id="4o" sampledSeconds="3515.21" traveltime="46.96" density="23.98" occupancy="11.99" waitingTime="0.00" speed="10.40" departed="0" arrived="0" entered="74" left="76" laneChangedFrom="0" laneChangedTo="0"/>
        <edge id="4si" sampledSeconds="3497.21" traveltime="50.76" density="49.16" occupancy="8.19" waitingTime="1650.00" speed="4.67" departed="0" arrived="0" entered="70" left="58" laneChangedFrom="0" laneChangedTo="0"/>
    </interval>
    <interval begin="600.00" end="900.00" id="dump_300">
        <edge id="1fi" sampledSeconds="2551.80" traveltime="24.43" density="34.23" occupancy="17.11" waitingTime="0.00" speed="10.17" departed="28" arrived="13" entered="75" left="87" laneChangedFrom="0" laneChangedTo="0"/>
        <edge id="1o" sampledSeconds="3558.31" traveltime="47.13" density="24.27" occupancy="12.14" waitingTime="0.00" speed="10.37" departed="0" arrived="0" entered="73" left="75" laneChangedFrom="0" laneChangedTo="0"/>
        <edge id="1si" sampledSeconds="9013.07" traveltime="114.58" density="126.69" occupancy="21.11" waitingTime="5120.00" speed="2.07" departed="0" arrived="0" entered="88" left="74" laneChangedFrom="0" laneChangedTo="0"/>
        <edge id="2fi" sampledSeconds="2584.89" traveltime="24.46" density="34.67" occupancy="17.34" waitingTime="0.00" speed="10.16" departed="30" arrived="24" entered="74" left="77" laneChangedFrom="0" laneChangedTo="0"/>
        <edge id="2o" sampledSeconds="3475.22" traveltime="46.94" density="23.71" occupancy="11.85" waitingTime="0.00" speed="10.41" departed="0" arrived="0" entered="69" left="74" laneChangedFrom="0" laneChangedTo="0"/>
        <edge id="2si" sampledSeconds="3917.84" traveltime="50.63" density="55.07" occupancy="9.18" waitingTime="1952.00" speed="4.68" departed="0" arrived="0" entered="77" left="76" laneChangedFrom="0" laneChangedTo="0"/>
        <edge id="3fi" sampledSeconds="2869.75" traveltime="24.68" density="38.49" occupancy="19.25" waitingTime="0.00" speed="10.07" departed="45" arrived="57" entered="70" left="58" laneChangedFrom="0" laneChangedTo="0"/>
        <edge id="3o" sampledSeconds="3382.47" traveltime="47.05" density="23.07" occupancy="11.54" waitingTime="0.00" speed="10.39" departed="0" arrived="0" entered="72" left="69" laneChangedFrom="0" laneChangedTo="0"/>
        <edge id="3si" sampledSeconds="3218.99" traveltime="52.89" density="45.25" occupancy="7.54" waitingTime="1698.00" speed="4.48" departed="0" arrived="0" entered="58" left="57" laneChangedFrom="0" laneChangedTo="0"/>
        <edge id="4fi" sampledSeconds="1782.10" traveltime="23.81" density="23.90" occupancy="11.95" waitingTime="0.00" speed="10.44" departed="0" arrived="0" entered="69" left="76" laneChangedFrom="0" laneChangedTo="0"/>
        <edge id="4o" sampledSeconds="3293.03" traveltime="47.02" density="22.46" occupancy="11.23" waitingTime="0.00" speed="10.39" departed="0" arrived="0" entered="69" left="69" laneChangedFrom="0" laneChangedTo="0"/>
        <edge id="4si" sampledSeconds="4156.00" traveltime="55.15" density="58.42" occupancy="9.74" waitingTime="2173.00" speed="4.30" departed="0" arrived="0" entered="76" left="70" laneChangedFrom="0" laneChangedTo="0"/>
    </interval>
    <interval begin="900.00" end="1000.00" id="dump_300">
        <edge id="1fi" sampledSeconds="1172.20" traveltime="32.44" density="47.17" occupancy="23.59" waitingTime="63.00" speed="7.66" departed="13" arrived="7" entered="26" left="21" laneChangedFrom="0" laneChangedTo="0"/>
        <edge id="1o" sampledSeconds="1134.41" traveltime="47.24" density="23.22" occupancy="11.61" waitingTime="0.00" speed="10.34" departed="0" arrived="0" entered="24" left="26" laneChangedFrom="0" laneChangedTo="0"/>
        <edge id="1si" sampledSeconds="3549.70" traveltime="135.06" density="149.68" occupancy="24.95" waitingTime="1829.00" speed="1.76" departed="0" arrived="0" entered="20" left="28" laneChangedFrom="0" laneChangedTo="0"/>
        <edge id="2fi" sampledSeconds="836.09" traveltime="24.62" density="33.65" occupancy="16.82" waitingTime="0.00" speed="10.09" departed="10" arrived="10" entered="23" left="23" laneChangedFrom="0" laneChangedTo="0"/>
        <edge id="2o" sampledSeconds="1117.21" traveltime="47.05" density="22.86" occupancy="11.43" waitingTime="0.00" speed="10.39" departed="0" arrived="0" entered="23" left="23" laneChangedFrom="0" laneChangedTo="0"/>
        <edge id="2si" sampledSeconds="1355.62" traveltime="56.70" density="57.16" occupancy="9.53" waitingTime="700.00" speed="4.18" departed="0" arrived="0" entered="23" left="18" laneChangedFrom="0" laneChangedTo="0"/>
        <edge id="3fi" sampledSeconds="904.76" traveltime="24.70" density="36.41" occupancy="18.20" waitingTime="0.00" speed="10.06" departed="13" arrived="13" entered="22" left="24" laneChangedFrom="0" laneChangedTo="0"/>
        <edge id="3o" sampledSeconds="1180.19" traveltime="47.00" density="24.15" occupancy="12.08" waitingTime="0.00" speed="10.40" departed="0" arrived="0" entered="25" left="22" laneChangedFrom="0" laneChangedTo="0"/>
        <edge id="3si" sampledSeconds="1022.99" traveltime="45.18" density="43.14" occupancy="7.19" waitingTime="430.00" speed="5.25" departed="0" arrived="0" entered="24" left="27" laneChangedFrom="0" laneChangedTo="0"/>
        <edge id="4fi" sampledSeconds="476.14" traveltime="23.80" density="19.16" occupancy="9.58" waitingTime="0.00" speed="10.44" departed="0" arrived="0" entered="21" left="20" laneChangedFrom="0" laneChangedTo="0"/>
        <edge id="4o" sampledSeconds="1053.58" traveltime="46.95" density="21.56" occupancy="10.78" waitingTime="0.00" speed="10.41" departed="0" arrived="0" entered="23" left="21" laneChangedFrom="0" laneChangedTo="0"/>
        <edge id="4si" sampledSeconds="1104.22" traveltime="49.02" density="46.56" occupancy="7.76" waitingTime="522.00" speed="4.84" departed="0" arrived="0" entered="20" left="27" laneChangedFrom="0" laneChangedTo="0"/>
    </interval>
</meandata>
