<?xml version="1.0" encoding="UTF-8"?>

<!-- generated on Tue Apr  5 13:44:43 2016 by SUMO Version dev-SVN-r20343
<?xml version="1.0" encoding="UTF-8"?>

<configuration xmlns:xsi="http://www.w3.org/2001/XMLSchema-instance" xsi:noNamespaceSchemaLocation="http://sumo.dlr.de/xsd/sumoConfiguration.xsd">

    <input>
        <net-file value="net.net.xml"/>
        <route-files value="input_routes.rou.xml"/>
        <additional-files value="input_additional.add.xml"/>
    </input>

    <time>
        <begin value="0"/>
        <end value="1000"/>
    </time>

    <report>
        <xml-validation value="never"/>
        <duration-log.disable value="true"/>
        <no-step-log value="true"/>
    </report>

</configuration>
-->

<meandata xmlns:xsi="http://www.w3.org/2001/XMLSchema-instance" xsi:noNamespaceSchemaLocation="http://sumo.dlr.de/xsd/meandata_file.xsd">
    <interval begin="0.00" end="300.00" id="dump_300">
        <edge id="1fi" sampledSeconds="687.05" traveltime="25.49" density="9.22" occupancy="4.61" waitingTime="0.00" speed="9.75" departed="20" arrived="0" entered="11" left="21" laneChangedFrom="0" laneChangedTo="0"/>
        <edge id="1o" sampledSeconds="566.36" traveltime="47.10" density="3.86" occupancy="1.93" waitingTime="0.00" speed="10.38" departed="0" arrived="0" entered="12" left="11" laneChangedFrom="0" laneChangedTo="0"/>
        <edge id="1si" sampledSeconds="782.05" traveltime="42.99" density="10.99" occupancy="1.83" waitingTime="302.00" speed="5.52" departed="0" arrived="0" entered="21" left="13" laneChangedFrom="0" laneChangedTo="0"/>
        <edge id="2fi" sampledSeconds="688.30" traveltime="25.33" density="9.23" occupancy="4.62" waitingTime="0.00" speed="9.81" departed="20" arrived="0" entered="9" left="25" laneChangedFrom="0" laneChangedTo="0"/>
        <edge id="2o" sampledSeconds="592.08" traveltime="47.08" density="4.04" occupancy="2.02" waitingTime="0.00" speed="10.38" departed="0" arrived="0" entered="19" left="9" laneChangedFrom="0" laneChangedTo="0"/>
        <edge id="2si" sampledSeconds="823.59" traveltime="38.16" density="11.58" occupancy="1.93" waitingTime="335.00" speed="6.22" departed="0" arrived="0" entered="25" left="12" laneChangedFrom="0" laneChangedTo="0"/>
        <edge id="3fi" sampledSeconds="1000.86" traveltime="25.97" density="13.43" occupancy="6.71" waitingTime="0.00" speed="9.57" departed="40" arrived="0" entered="0" left="36" laneChangedFrom="0" laneChangedTo="0"/>
        <edge id="3o" sampledSeconds="102.86" traveltime="46.90" density="0.70" occupancy="0.35" waitingTime="0.00" speed="10.42" departed="0" arrived="0" entered="6" left="0" laneChangedFrom="0" laneChangedTo="0"/>
        <edge id="3si" sampledSeconds="1257.65" traveltime="38.56" density="17.68" occupancy="2.95" waitingTime="498.00" speed="6.15" departed="0" arrived="0" entered="35" left="32" laneChangedFrom="0" laneChangedTo="0"/>
        <edge id="4fi" sampledSeconds="276.35" traveltime="23.83" density="3.71" occupancy="1.85" waitingTime="0.00" speed="10.43" departed="0" arrived="0" entered="13" left="11" laneChangedFrom="0" laneChangedTo="0"/>
        <edge id="4o" sampledSeconds="950.40" traveltime="46.91" density="6.48" occupancy="3.24" waitingTime="0.00" speed="10.42" departed="0" arrived="0" entered="26" left="14" laneChangedFrom="0" laneChangedTo="0"/>
        <edge id="4si" sampledSeconds="349.60" traveltime="33.22" density="4.91" occupancy="0.82" waitingTime="110.00" speed="7.14" departed="0" arrived="0" entered="11" left="9" laneChangedFrom="0" laneChangedTo="0"/>
    </interval>
    <interval begin="300.00" end="600.00" id="dump_300">
        <edge id="1fi" sampledSeconds="1721.97" traveltime="24.74" density="23.10" occupancy="11.55" waitingTime="0.00" speed="10.04" departed="29" arrived="0" entered="39" left="71" laneChangedFrom="0" laneChangedTo="0"/>
        <edge id="1o" sampledSeconds="2118.13" traveltime="46.96" density="14.45" occupancy="7.22" waitingTime="0.00" speed="10.41" departed="0" arrived="0" entered="51" left="39" laneChangedFrom="0" laneChangedTo="0"/>
        <edge id="1si" sampledSeconds="4582.99" traveltime="79.62" density="64.42" occupancy="10.74" waitingTime="2469.00" speed="2.98" departed="0" arrived="0" entered="71" left="58" laneChangedFrom="0" laneChangedTo="0"/>
        <edge id="2fi" sampledSeconds="2495.75" traveltime="24.48" density="33.48" occupancy="16.74" waitingTime="0.00" speed="10.15" departed="29" arrived="29" entered="73" left="70" laneChangedFrom="0" laneChangedTo="0"/>
        <edge id="2o" sampledSeconds="3604.69" traveltime="47.12" density="24.59" occupancy="12.29" waitingTime="0.00" speed="10.37" departed="0" arrived="0" entered="76" left="73" laneChangedFrom="0" laneChangedTo="0"/>
        <edge id="2si" sampledSeconds="3663.27" traveltime="56.46" density="51.49" occupancy="8.58" waitingTime="1846.00" speed="4.20" departed="0" arrived="0" entered="70" left="74" laneChangedFrom="0" laneChangedTo="0"/>
        <edge id="3fi" sampledSeconds="2350.77" traveltime="25.24" density="31.53" occupancy="15.77" waitingTime="0.00" speed="9.85" departed="59" arrived="24" entered="35" left="65" laneChangedFrom="0" laneChangedTo="0"/>
        <edge id="3o" sampledSeconds="1803.68" traveltime="47.18" density="12.30" occupancy="6.15" waitingTime="0.00" speed="10.36" departed="0" arrived="0" entered="40" left="35" laneChangedFrom="0" laneChangedTo="0"/>
        <edge id="3si" sampledSeconds="2921.15" traveltime="48.33" density="41.06" occupancy="6.84" waitingTime="1414.00" speed="4.91" departed="0" arrived="0" entered="66" left="55" laneChangedFrom="0" laneChangedTo="0"/>
        <edge id="4fi" sampledSeconds="1804.88" traveltime="23.86" density="24.21" occupancy="12.11" waitingTime="0.00" speed="10.41" departed="0" arrived="0" entered="77" left="70" laneChangedFrom="0" laneChangedTo="0"/>
        <edge id="4o" sampledSeconds="3569.07" traveltime="47.05" density="24.35" occupancy="12.17" waitingTime="0.00" speed="10.39" departed="0" arrived="0" entered="75" left="76" laneChangedFrom="0" laneChangedTo="0"/>
        <edge id="4si" sampledSeconds="3313.41" traveltime="53.14" density="46.57" occupancy="7.76" waitingTime="1530.00" speed="4.46" departed="0" arrived="0" entered="70" left="59" laneChangedFrom="0" laneChangedTo="0"/>
    </interval>
    <interval begin="600.00" end="900.00" id="dump_300">
        <edge id="1fi" sampledSeconds="2600.18" traveltime="24.45" density="34.88" occupancy="17.44" waitingTime="0.00" speed="10.16" departed="30" arrived="14" entered="75" left="89" laneChangedFrom="0" laneChangedTo="0"/>
        <edge id="1o" sampledSeconds="3617.94" traveltime="47.10" density="24.68" occupancy="12.34" waitingTime="0.00" speed="10.37" departed="0" arrived="0" entered="74" left="75" laneChangedFrom="0" laneChangedTo="0"/>
        <edge id="1si" sampledSeconds="9015.34" traveltime="169.09" density="126.72" occupancy="21.12" waitingTime="5108.00" speed="1.40" departed="0" arrived="0" entered="89" left="76" laneChangedFrom="0" laneChangedTo="0"/>
        <edge id="2fi" sampledSeconds="2615.40" traveltime="24.44" density="35.08" occupancy="17.54" waitingTime="0.00" speed="10.17" departed="31" arrived="26" entered="73" left="77" laneChangedFrom="0" laneChangedTo="0"/>
        <edge id="2o" sampledSeconds="3424.22" traveltime="47.00" density="23.36" occupancy="11.68" waitingTime="0.00" speed="10.40" departed="0" arrived="0" entered="69" left="73" laneChangedFrom="0" laneChangedTo="0"/>
        <edge id="2si" sampledSeconds="4329.08" traveltime="63.14" density="60.85" occupancy="10.14" waitingTime="2218.00" speed="3.76" departed="0" arrived="0" entered="77" left="76" laneChangedFrom="0" laneChangedTo="0"/>
        <edge id="3fi" sampledSeconds="2821.11" traveltime="24.63" density="37.84" occupancy="18.92" waitingTime="0.00" speed="10.09" departed="41" arrived="55" entered="71" left="57" laneChangedFrom="0" laneChangedTo="0"/>
        <edge id="3o" sampledSeconds="3448.28" traveltime="47.09" density="23.52" occupancy="11.76" waitingTime="0.00" speed="10.38" departed="0" arrived="0" entered="74" left="71" laneChangedFrom="0" laneChangedTo="0"/>
        <edge id="3si" sampledSeconds="3177.91" traveltime="58.73" density="44.67" occupancy="7.44" waitingTime="1689.00" speed="4.04" departed="0" arrived="0" entered="57" left="55" laneChangedFrom="0" laneChangedTo="0"/>
        <edge id="4fi" sampledSeconds="1738.83" traveltime="23.81" density="23.32" occupancy="11.66" waitingTime="0.00" speed="10.44" departed="0" arrived="0" entered="67" left="76" laneChangedFrom="0" laneChangedTo="0"/>
        <edge id="4o" sampledSeconds="3160.60" traveltime="46.99" density="21.56" occupancy="10.78" waitingTime="0.00" speed="10.40" departed="0" arrived="0" entered="66" left="67" laneChangedFrom="0" laneChangedTo="0"/>
        <edge id="4si" sampledSeconds="3676.06" traveltime="54.03" density="51.67" occupancy="8.61" waitingTime="1768.00" speed="4.39" departed="0" arrived="0" entered="76" left="69" laneChangedFrom="0" laneChangedTo="0"/>
    </interval>
    <interval begin="900.00" end="1000.00" id="dump_300">
        <edge id="1fi" sampledSeconds="1306.84" traveltime="38.33" density="52.59" occupancy="26.29" waitingTime="108.00" speed="6.48" departed="10" arrived="6" entered="28" left="20" laneChangedFrom="0" laneChangedTo="0"/>
        <edge id="1o" sampledSeconds="1190.09" traveltime="47.16" density="24.35" occupancy="12.18" waitingTime="0.00" speed="10.36" departed="0" arrived="0" entered="25" left="28" laneChangedFrom="0" laneChangedTo="0"/>
        <edge id="1si" sampledSeconds="3504.92" traveltime="207.42" density="147.79" occupancy="24.63" waitingTime="1754.00" speed="1.14" departed="0" arrived="0" entered="19" left="27" laneChangedFrom="0" laneChangedTo="0"/>
        <edge id="2fi" sampledSeconds="787.77" traveltime="24.42" density="31.70" occupancy="15.85" waitingTime="0.00" speed="10.17" departed="9" arrived="9" entered="24" left="22" laneChangedFrom="0" laneChangedTo="0"/>
        <edge id="2o" sampledSeconds="1217.99" traveltime="46.90" density="24.93" occupancy="12.46" waitingTime="0.00" speed="10.42" departed="0" arrived="0" entered="26" left="24" laneChangedFrom="0" laneChangedTo="0"/>
        <edge id="2si" sampledSeconds="1417.01" traveltime="72.68" density="59.75" occupancy="9.96" waitingTime="829.00" speed="3.26" departed="0" arrived="0" entered="22" left="16" laneChangedFrom="0" laneChangedTo="0"/>
        <edge id="3fi" sampledSeconds="926.25" traveltime="24.72" density="37.27" occupancy="18.64" waitingTime="0.00" speed="10.05" departed="15" arrived="15" entered="21" left="22" laneChangedFrom="0" laneChangedTo="0"/>
        <edge id="3o" sampledSeconds="1039.68" traveltime="47.15" density="21.28" occupancy="10.64" waitingTime="0.00" speed="10.36" departed="0" arrived="0" entered="20" left="22" laneChangedFrom="0" laneChangedTo="0"/>
        <edge id="3si" sampledSeconds="994.98" traveltime="49.19" density="41.96" occupancy="6.99" waitingTime="436.00" speed="4.82" departed="0" arrived="0" entered="22" left="27" laneChangedFrom="0" laneChangedTo="0"/>
        <edge id="4fi" sampledSeconds="368.27" traveltime="23.75" density="14.82" occupancy="7.41" waitingTime="0.00" speed="10.46" departed="0" arrived="0" entered="17" left="15" laneChangedFrom="0" laneChangedTo="0"/>
        <edge id="4o" sampledSeconds="904.07" traveltime="47.02" density="18.50" occupancy="9.25" waitingTime="0.00" speed="10.39" departed="0" arrived="0" entered="21" left="17" laneChangedFrom="0" laneChangedTo="0"/>
        <edge id="4si" sampledSeconds="963.34" traveltime="54.45" density="40.62" occupancy="6.77" waitingTime="462.00" speed="4.36" departed="0" arrived="0" entered="15" left="28" laneChangedFrom="0" laneChangedTo="0"/>
    </interval>
</meandata>
