<?xml version="1.0" encoding="UTF-8"?>

<!-- generated on Tue Sep 13 12:06:36 2016 by SUMO Version dev-SVN-r21424
<?xml version="1.0" encoding="UTF-8"?>

<configuration xmlns:xsi="http://www.w3.org/2001/XMLSchema-instance" xsi:noNamespaceSchemaLocation="http://sumo.dlr.de/xsd/sumoConfiguration.xsd">

    <input>
        <net-file value="net.net.xml"/>
        <route-files value="input_routes.rou.xml"/>
    </input>

    <output>
        <tripinfo-output value="tripinfos.xml"/>
    </output>

    <processing>
        <step-method.ballistic value="true"/>
    </processing>

    <report>
        <xml-validation value="never"/>
        <no-step-log value="true"/>
    </report>

</configuration>
-->

<tripinfos xmlns:xsi="http://www.w3.org/2001/XMLSchema-instance" xsi:noNamespaceSchemaLocation="http://sumo.dlr.de/xsd/tripinfo_file.xsd">
    <tripinfo id="v1" depart="7.00" departLane="3i_0" departPos="493.25" departSpeed="10.50" departDelay="2.00" arrival="160.00" arrivalLane="3i_0" arrivalPos="495.25" arrivalSpeed="18.19" duration="153.00" routeLength="2011.64" waitSteps="0" timeLoss="10.01" rerouteNo="0" devices="tripinfo_v1" vType="DEFAULT_VEHTYPE" vaporized=""/>
    <tripinfo id="h1" depart="0.00" departLane="2i_0" departPos="445.25" departSpeed="16.92" departDelay="0.00" arrival="162.00" arrivalLane="2i_0" arrivalPos="495.25" arrivalSpeed="19.14" duration="162.00" routeLength="2059.64" waitSteps="0" timeLoss="16.66" rerouteNo="0" devices="tripinfo_h1" vType="DEFAULT_VEHTYPE" vaporized=""/>
    <tripinfo id="v2" depart="107.00" departLane="3i_0" departPos="488.25" departSpeed="10.50" departDelay="2.00" arrival="260.00" arrivalLane="3i_0" arrivalPos="495.25" arrivalSpeed="19.43" duration="153.00" routeLength="2016.64" waitSteps="0" timeLoss="9.69" rerouteNo="0" devices="tripinfo_v2" vType="DEFAULT_VEHTYPE" vaporized=""/>
    <tripinfo id="h2" depart="100.00" departLane="2i_0" departPos="445.25" departSpeed="16.92" departDelay="0.00" arrival="264.00" arrivalLane="2i_0" arrivalPos="495.25" arrivalSpeed="18.29" duration="164.00" routeLength="2059.64" waitSteps="0" timeLoss="18.45" rerouteNo="0" devices="tripinfo_h2" vType="DEFAULT_VEHTYPE" vaporized=""/>
    <tripinfo id="v3" depart="207.00" departLane="3i_0" departPos="483.25" departSpeed="10.50" departDelay="2.00" arrival="361.00" arrivalLane="3i_0" arrivalPos="495.25" arrivalSpeed="18.78" duration="154.00" routeLength="2021.64" waitSteps="0" timeLoss="10.45" rerouteNo="0" devices="tripinfo_v3" vType="DEFAULT_VEHTYPE" vaporized=""/>
    <tripinfo id="h3" depart="200.00" departLane="2i_0" departPos="445.25" departSpeed="16.92" departDelay="0.00" arrival="365.00" arrivalLane="2i_0" arrivalPos="495.25" arrivalSpeed="18.30" duration="165.00" routeLength="2059.64" waitSteps="2" timeLoss="19.98" rerouteNo="0" devices="tripinfo_h3" vType="DEFAULT_VEHTYPE" vaporized=""/>
    <tripinfo id="v4" depart="307.00" departLane="3i_0" departPos="478.25" departSpeed="10.50" departDelay="2.00" arrival="462.00" arrivalLane="3i_0" arrivalPos="495.25" arrivalSpeed="18.31" duration="155.00" routeLength="2026.64" waitSteps="0" timeLoss="11.35" rerouteNo="0" devices="tripinfo_v4" vType="DEFAULT_VEHTYPE" vaporized=""/>
    <tripinfo id="h4" depart="300.00" departLane="2i_0" departPos="445.25" departSpeed="16.92" departDelay="0.00" arrival="464.00" arrivalLane="2i_0" arrivalPos="495.25" arrivalSpeed="18.63" duration="164.00" routeLength="2059.64" waitSteps="1" timeLoss="19.20" rerouteNo="0" devices="tripinfo_h4" vType="DEFAULT_VEHTYPE" vaporized=""/>
    <tripinfo id="v5" depart="407.00" departLane="3i_0" departPos="473.25" departSpeed="10.50" departDelay="2.00" arrival="561.00" arrivalLane="3i_0" arrivalPos="495.25" arrivalSpeed="18.22" duration="154.00" routeLength="2031.64" waitSteps="0" timeLoss="9.95" rerouteNo="0" devices="tripinfo_v5" vType="DEFAULT_VEHTYPE" vaporized=""/>
    <tripinfo id="h5" depart="400.00" departLane="2i_0" departPos="445.25" departSpeed="16.92" departDelay="0.00" arrival="565.00" arrivalLane="2i_0" arrivalPos="495.25" arrivalSpeed="18.15" duration="165.00" routeLength="2059.64" waitSteps="2" timeLoss="19.77" rerouteNo="0" devices="tripinfo_h5" vType="DEFAULT_VEHTYPE" vaporized=""/>
</tripinfos>
