<?xml version="1.0" encoding="UTF-8"?>

<!-- generated on Thu Sep  8 11:35:51 2016 by SUMO Version dev-SVN-r21424
<?xml version="1.0" encoding="UTF-8"?>

<configuration xmlns:xsi="http://www.w3.org/2001/XMLSchema-instance" xsi:noNamespaceSchemaLocation="http://sumo.dlr.de/xsd/sumoConfiguration.xsd">

    <input>
        <net-file value="motorway.net.xml"/>
        <route-files value="input_routes.rou.xml"/>
        <additional-files value="input_additional.add.xml"/>
    </input>

    <processing>
        <step-method.ballistic value="true"/>
        <max-depart-delay value="1"/>
    </processing>

    <report>
        <verbose value="true"/>
        <xml-validation value="never"/>
        <duration-log.statistics value="true"/>
        <no-step-log value="true"/>
    </report>

</configuration>
-->

<detector xmlns:xsi="http://www.w3.org/2001/XMLSchema-instance" xsi:noNamespaceSchemaLocation="http://sumo.dlr.de/xsd/det_e1_file.xsd">
   <interval begin="0.00" end="900.00" id="end2_0" nVehContrib="611" flow="2444.00" occupancy="6.57" speed="31.26" length="3.00" nVehEntered="611"/>
   <interval begin="900.00" end="1800.00" id="end2_0" nVehContrib="692" flow="2768.00" occupancy="7.68" speed="30.28" length="3.00" nVehEntered="692"/>
   <interval begin="1800.00" end="1905.00" id="end2_0" nVehContrib="65" flow="2228.57" occupancy="5.88" speed="31.73" length="3.00" nVehEntered="65"/>
</detector>
