<?xml version="1.0" encoding="UTF-8"?>

<!-- generated on Fri Sep  9 15:30:37 2016 by SUMO Version dev-SVN-r21424
<?xml version="1.0" encoding="UTF-8"?>

<configuration xmlns:xsi="http://www.w3.org/2001/XMLSchema-instance" xsi:noNamespaceSchemaLocation="http://sumo.dlr.de/xsd/sumoConfiguration.xsd">

    <input>
        <net-file value="three_split.net.xml"/>
        <route-files value="input_routes.rou.xml"/>
        <additional-files value="input_additional.add.xml"/>
    </input>

    <time>
        <end value="5401"/>
    </time>

    <processing>
        <step-method.ballistic value="true"/>
    </processing>

    <report>
        <xml-validation value="never"/>
        <duration-log.disable value="true"/>
        <no-step-log value="true"/>
    </report>

</configuration>
-->

<meandata xmlns:xsi="http://www.w3.org/2001/XMLSchema-instance" xsi:noNamespaceSchemaLocation="http://sumo.dlr.de/xsd/meandata_file.xsd">
    <interval begin="0.00" end="3600.00" id="expect_speed_10">
        <edge id="beg" sampledSeconds="30048.55" traveltime="25.13" overlapTraveltime="25.14" density="16.69" occupancy="8.35" waitingTime="0.00" speed="20.09" departed="1200" arrived="0" entered="0" left="1192" laneChangedFrom="0" laneChangedTo="0"/>
        <edge id="beg2left" sampledSeconds="0.00" departed="0" arrived="0" entered="0" left="0" laneChangedFrom="0" laneChangedTo="0"/>
        <edge id="beg2right" sampledSeconds="0.00" departed="0" arrived="0" entered="0" left="0" laneChangedFrom="0" laneChangedTo="0"/>
        <edge id="end" sampledSeconds="23832.21" traveltime="20.08" overlapTraveltime="20.25" density="13.24" occupancy="6.62" waitingTime="0.00" speed="24.93" departed="0" arrived="0" entered="1159" left="1152" laneChangedFrom="0" laneChangedTo="0"/>
        <edge id="left" sampledSeconds="0.00" departed="0" arrived="0" entered="0" left="0" laneChangedFrom="0" laneChangedTo="0"/>
        <edge id="left2end" sampledSeconds="0.00" departed="0" arrived="0" entered="0" left="0" laneChangedFrom="0" laneChangedTo="0"/>
        <edge id="middle" sampledSeconds="118083.46" traveltime="99.75" overlapTraveltime="100.47" density="32.80" occupancy="16.40" waitingTime="0.00" speed="10.00" departed="0" arrived="0" entered="1192" left="1159" laneChangedFrom="0" laneChangedTo="0"/>
        <edge id="rend" sampledSeconds="20911.75" traveltime="17.99" overlapTraveltime="18.17" density="11.62" occupancy="5.81" waitingTime="0.00" speed="27.80" departed="0" arrived="1146" entered="1152" left="0" laneChangedFrom="0" laneChangedTo="0"/>
        <edge id="right" sampledSeconds="0.00" departed="0" arrived="0" entered="0" left="0" laneChangedFrom="0" laneChangedTo="0"/>
        <edge id="right2end" sampledSeconds="0.00" departed="0" arrived="0" entered="0" left="0" laneChangedFrom="0" laneChangedTo="0"/>
    </interval>
</meandata>
