<?xml version="1.0" encoding="UTF-8"?>

<!-- generated on Wed Jun  1 14:02:50 2016 by SUMO Version dev-SVN-r20832
<?xml version="1.0" encoding="UTF-8"?>

<configuration xmlns:xsi="http://www.w3.org/2001/XMLSchema-instance" xsi:noNamespaceSchemaLocation="http://sumo.dlr.de/xsd/sumoConfiguration.xsd">

    <input>
        <net-file value="three_split.net.xml"/>
        <route-files value="input_routes.rou.xml"/>
        <additional-files value="input_additional.add.xml"/>
    </input>

    <output>
        <vehroute-output value="vehroutes.xml"/>
    </output>

    <report>
        <xml-validation value="never"/>
        <duration-log.disable value="true"/>
        <no-step-log value="true"/>
    </report>

</configuration>
-->

<meandata xmlns:xsi="http://www.w3.org/2001/XMLSchema-instance" xsi:noNamespaceSchemaLocation="http://sumo.dlr.de/xsd/meandata_file.xsd">
    <interval begin="0.00" end="100.00" id="expect10vehs">
        <edge id="beg" sampledSeconds="148.00" traveltime="17.99" density="2.96" occupancy="1.48" waitingTime="0.00" speed="27.80" departed="10" arrived="0" entered="0" left="6" laneChangedFrom="0" laneChangedTo="0"/>
        <edge id="beg2left" sampledSeconds="0.00" departed="0" arrived="0" entered="0" left="0" laneChangedFrom="0" laneChangedTo="0"/>
        <edge id="beg2right" sampledSeconds="0.00" departed="0" arrived="0" entered="0" left="0" laneChangedFrom="0" laneChangedTo="0"/>
        <edge id="end" sampledSeconds="27.45" traveltime="17.99" density="0.55" occupancy="0.27" waitingTime="0.00" speed="27.80" departed="0" arrived="0" entered="2" left="1" laneChangedFrom="0" laneChangedTo="0"/>
        <edge id="left" sampledSeconds="0.00" departed="0" arrived="0" entered="0" left="0" laneChangedFrom="0" laneChangedTo="0"/>
        <edge id="left2end" sampledSeconds="0.00" departed="0" arrived="0" entered="0" left="0" laneChangedFrom="0" laneChangedTo="0"/>
        <edge id="middle" sampledSeconds="115.06" traveltime="35.97" density="1.15" occupancy="0.58" waitingTime="0.00" speed="27.80" departed="0" arrived="0" entered="6" left="2" laneChangedFrom="0" laneChangedTo="0"/>
        <edge id="rend" sampledSeconds="18.24" traveltime="17.99" density="0.36" occupancy="0.18" waitingTime="0.00" speed="27.80" departed="0" arrived="1" entered="1" left="0" laneChangedFrom="0" laneChangedTo="0"/>
        <edge id="right" sampledSeconds="0.00" departed="0" arrived="0" entered="0" left="0" laneChangedFrom="0" laneChangedTo="0"/>
        <edge id="right2end" sampledSeconds="0.00" departed="0" arrived="0" entered="0" left="0" laneChangedFrom="0" laneChangedTo="0"/>
    </interval>
    <interval begin="200.00" end="400.00" id="expect31vehs">
        <edge id="beg" sampledSeconds="522.71" traveltime="18.01" density="5.23" occupancy="2.61" waitingTime="0.00" speed="27.76" departed="31" arrived="0" entered="0" left="27" laneChangedFrom="0" laneChangedTo="0"/>
        <edge id="beg2left" sampledSeconds="0.00" departed="0" arrived="0" entered="0" left="0" laneChangedFrom="0" laneChangedTo="0"/>
        <edge id="beg2right" sampledSeconds="0.00" departed="0" arrived="0" entered="0" left="0" laneChangedFrom="0" laneChangedTo="0"/>
        <edge id="end" sampledSeconds="322.18" traveltime="17.99" density="3.22" occupancy="1.61" waitingTime="0.00" speed="27.80" departed="0" arrived="0" entered="19" left="16" laneChangedFrom="0" laneChangedTo="0"/>
        <edge id="left" sampledSeconds="0.00" departed="0" arrived="0" entered="0" left="0" laneChangedFrom="0" laneChangedTo="0"/>
        <edge id="left2end" sampledSeconds="0.00" departed="0" arrived="0" entered="0" left="0" laneChangedFrom="0" laneChangedTo="0"/>
        <edge id="middle" sampledSeconds="846.96" traveltime="35.97" density="4.23" occupancy="2.12" waitingTime="0.00" speed="27.80" departed="0" arrived="0" entered="27" left="19" laneChangedFrom="0" laneChangedTo="0"/>
        <edge id="rend" sampledSeconds="245.57" traveltime="17.99" density="2.46" occupancy="1.23" waitingTime="0.00" speed="27.80" departed="0" arrived="11" entered="16" left="0" laneChangedFrom="0" laneChangedTo="0"/>
        <edge id="right" sampledSeconds="0.00" departed="0" arrived="0" entered="0" left="0" laneChangedFrom="0" laneChangedTo="0"/>
        <edge id="right2end" sampledSeconds="0.00" departed="0" arrived="0" entered="0" left="0" laneChangedFrom="0" laneChangedTo="0"/>
    </interval>
    <interval begin="400.00" end="700.00" id="expect100vehs">
        <edge id="beg" sampledSeconds="1782.67" traveltime="18.00" density="11.88" occupancy="5.94" waitingTime="0.00" speed="27.77" departed="100" arrived="0" entered="0" left="98" laneChangedFrom="0" laneChangedTo="0"/>
        <edge id="beg2left" sampledSeconds="0.00" departed="0" arrived="0" entered="0" left="0" laneChangedFrom="0" laneChangedTo="0"/>
        <edge id="beg2right" sampledSeconds="0.00" departed="0" arrived="0" entered="0" left="0" laneChangedFrom="0" laneChangedTo="0"/>
        <edge id="end" sampledSeconds="1715.10" traveltime="17.99" density="11.43" occupancy="5.72" waitingTime="0.00" speed="27.80" departed="0" arrived="0" entered="95" left="93" laneChangedFrom="0" laneChangedTo="0"/>
        <edge id="left" sampledSeconds="0.00" departed="0" arrived="0" entered="0" left="0" laneChangedFrom="0" laneChangedTo="0"/>
        <edge id="left2end" sampledSeconds="0.00" departed="0" arrived="0" entered="0" left="0" laneChangedFrom="0" laneChangedTo="0"/>
        <edge id="middle" sampledSeconds="3485.66" traveltime="35.97" density="11.62" occupancy="5.81" waitingTime="0.00" speed="27.80" departed="0" arrived="0" entered="98" left="95" laneChangedFrom="0" laneChangedTo="0"/>
        <edge id="rend" sampledSeconds="1687.27" traveltime="17.99" density="11.25" occupancy="5.62" waitingTime="0.00" speed="27.80" departed="0" arrived="92" entered="93" left="0" laneChangedFrom="0" laneChangedTo="0"/>
        <edge id="right" sampledSeconds="0.00" departed="0" arrived="0" entered="0" left="0" laneChangedFrom="0" laneChangedTo="0"/>
        <edge id="right2end" sampledSeconds="0.00" departed="0" arrived="0" entered="0" left="0" laneChangedFrom="0" laneChangedTo="0"/>
    </interval>
    <interval begin="2000.00" end="2100.00" id="expect10vehs">
        <edge id="beg" sampledSeconds="203.48" traveltime="18.03" density="4.07" occupancy="2.03" waitingTime="0.00" speed="27.73" departed="56" arrived="0" entered="0" left="56" laneChangedFrom="0" laneChangedTo="0" vaporized="46"/>
        <edge id="beg2left" sampledSeconds="0.00" departed="0" arrived="0" entered="0" left="0" laneChangedFrom="0" laneChangedTo="0"/>
        <edge id="beg2right" sampledSeconds="0.00" departed="0" arrived="0" entered="0" left="0" laneChangedFrom="0" laneChangedTo="0"/>
        <edge id="end" sampledSeconds="182.14" traveltime="17.99" density="3.64" occupancy="1.82" waitingTime="0.00" speed="27.80" departed="0" arrived="0" entered="10" left="10" laneChangedFrom="0" laneChangedTo="0"/>
        <edge id="left" sampledSeconds="0.00" departed="0" arrived="0" entered="0" left="0" laneChangedFrom="0" laneChangedTo="0"/>
        <edge id="left2end" sampledSeconds="0.00" departed="0" arrived="0" entered="0" left="0" laneChangedFrom="0" laneChangedTo="0"/>
        <edge id="middle" sampledSeconds="361.41" traveltime="35.97" density="3.61" occupancy="1.81" waitingTime="0.00" speed="27.80" departed="0" arrived="0" entered="10" left="10" laneChangedFrom="0" laneChangedTo="0"/>
        <edge id="rend" sampledSeconds="166.12" traveltime="17.99" density="3.32" occupancy="1.66" waitingTime="0.00" speed="27.80" departed="0" arrived="6" entered="10" left="0" laneChangedFrom="0" laneChangedTo="0"/>
        <edge id="right" sampledSeconds="0.00" departed="0" arrived="0" entered="0" left="0" laneChangedFrom="0" laneChangedTo="0"/>
        <edge id="right2end" sampledSeconds="0.00" departed="0" arrived="0" entered="0" left="0" laneChangedFrom="0" laneChangedTo="0"/>
    </interval>
    <interval begin="2200.00" end="2400.00" id="expect31vehs">
        <edge id="beg" sampledSeconds="703.14" traveltime="18.03" density="7.03" occupancy="3.52" waitingTime="0.00" speed="27.73" departed="111" arrived="0" entered="0" left="122" laneChangedFrom="0" laneChangedTo="0" vaporized="80"/>
        <edge id="beg2left" sampledSeconds="0.00" departed="0" arrived="0" entered="0" left="0" laneChangedFrom="0" laneChangedTo="0"/>
        <edge id="beg2right" sampledSeconds="0.00" departed="0" arrived="0" entered="0" left="0" laneChangedFrom="0" laneChangedTo="0"/>
        <edge id="end" sampledSeconds="1214.67" traveltime="17.99" density="12.15" occupancy="6.07" waitingTime="0.00" speed="27.80" departed="0" arrived="0" entered="62" left="72" laneChangedFrom="0" laneChangedTo="0"/>
        <edge id="left" sampledSeconds="0.00" departed="0" arrived="0" entered="0" left="0" laneChangedFrom="0" laneChangedTo="0"/>
        <edge id="left2end" sampledSeconds="0.00" departed="0" arrived="0" entered="0" left="0" laneChangedFrom="0" laneChangedTo="0"/>
        <edge id="middle" sampledSeconds="1867.85" traveltime="35.97" density="9.34" occupancy="4.67" waitingTime="0.00" speed="27.80" departed="0" arrived="0" entered="42" left="62" laneChangedFrom="0" laneChangedTo="0"/>
        <edge id="rend" sampledSeconds="1398.56" traveltime="17.99" density="13.99" occupancy="6.99" waitingTime="0.00" speed="27.80" departed="0" arrived="82" entered="72" left="0" laneChangedFrom="0" laneChangedTo="0"/>
        <edge id="right" sampledSeconds="0.00" departed="0" arrived="0" entered="0" left="0" laneChangedFrom="0" laneChangedTo="0"/>
        <edge id="right2end" sampledSeconds="0.00" departed="0" arrived="0" entered="0" left="0" laneChangedFrom="0" laneChangedTo="0"/>
    </interval>
    <interval begin="2400.00" end="2700.00" id="expect100vehs">
        <edge id="beg" sampledSeconds="1837.76" traveltime="18.03" density="12.25" occupancy="6.13" waitingTime="0.00" speed="27.73" departed="166" arrived="0" entered="0" left="166" laneChangedFrom="0" laneChangedTo="0" vaporized="66"/>
        <edge id="beg2left" sampledSeconds="0.00" departed="0" arrived="0" entered="0" left="0" laneChangedFrom="0" laneChangedTo="0"/>
        <edge id="beg2right" sampledSeconds="0.00" departed="0" arrived="0" entered="0" left="0" laneChangedFrom="0" laneChangedTo="0"/>
        <edge id="end" sampledSeconds="1821.44" traveltime="17.99" density="12.14" occupancy="6.07" waitingTime="0.00" speed="27.80" departed="0" arrived="0" entered="100" left="100" laneChangedFrom="0" laneChangedTo="0"/>
        <edge id="left" sampledSeconds="0.00" departed="0" arrived="0" entered="0" left="0" laneChangedFrom="0" laneChangedTo="0"/>
        <edge id="left2end" sampledSeconds="0.00" departed="0" arrived="0" entered="0" left="0" laneChangedFrom="0" laneChangedTo="0"/>
        <edge id="middle" sampledSeconds="3614.13" traveltime="35.97" density="12.05" occupancy="6.02" waitingTime="0.00" speed="27.80" departed="0" arrived="0" entered="100" left="100" laneChangedFrom="0" laneChangedTo="0"/>
        <edge id="rend" sampledSeconds="1823.70" traveltime="17.99" density="12.16" occupancy="6.08" waitingTime="0.00" speed="27.80" departed="0" arrived="100" entered="100" left="0" laneChangedFrom="0" laneChangedTo="0"/>
        <edge id="right" sampledSeconds="0.00" departed="0" arrived="0" entered="0" left="0" laneChangedFrom="0" laneChangedTo="0"/>
        <edge id="right2end" sampledSeconds="0.00" departed="0" arrived="0" entered="0" left="0" laneChangedFrom="0" laneChangedTo="0"/>
    </interval>
</meandata>
