<?xml version="1.0" encoding="UTF-8"?>

<!-- generated on Tue Apr  5 13:44:53 2016 by SUMO Version dev-SVN-r20343
<?xml version="1.0" encoding="UTF-8"?>

<configuration xmlns:xsi="http://www.w3.org/2001/XMLSchema-instance" xsi:noNamespaceSchemaLocation="http://sumo.dlr.de/xsd/sumoConfiguration.xsd">

    <input>
        <net-file value="net.net.xml"/>
        <route-files value="input_routes.rou.xml"/>
        <additional-files value="input_additional.add.xml,input_additional2.add.xml"/>
    </input>

    <time>
        <begin value="0"/>
        <end value="1000"/>
    </time>

    <report>
        <xml-validation value="never"/>
        <duration-log.disable value="true"/>
        <no-step-log value="true"/>
    </report>

</configuration>
-->

<meandata xmlns:xsi="http://www.w3.org/2001/XMLSchema-instance" xsi:noNamespaceSchemaLocation="http://sumo.dlr.de/xsd/meandata_file.xsd">
    <interval begin="0.00" end="25.00" id="dump_25">
        <edge id="beg" sampledSeconds="42.00" traveltime="26.98" density="3.37" occupancy="1.01" waitingTime="0.00" speed="18.48" departed="3" arrived="0" entered="0" left="0" laneChangedFrom="0" laneChangedTo="0"/>
    </interval>
    <interval begin="25.00" end="50.00" id="dump_25">
        <edge id="beg" sampledSeconds="61.92" traveltime="24.77" density="4.97" occupancy="1.49" waitingTime="0.00" speed="20.13" departed="2" arrived="0" entered="0" left="3" laneChangedFrom="0" laneChangedTo="0"/>
        <edge id="middle" sampledSeconds="38.91" traveltime="353.75" density="1.57" occupancy="0.47" waitingTime="0.00" speed="2.80" departed="0" arrived="0" entered="3" left="0" laneChangedFrom="0" laneChangedTo="0"/>
    </interval>
    <interval begin="50.00" end="75.00" id="dump_25">
        <edge id="beg" sampledSeconds="64.62" traveltime="25.29" density="5.18" occupancy="1.56" waitingTime="0.00" speed="19.72" departed="3" arrived="0" entered="0" left="2" laneChangedFrom="0" laneChangedTo="0"/>
        <edge id="middle" sampledSeconds="100.94" traveltime="353.75" density="4.08" occupancy="1.22" waitingTime="0.00" speed="2.80" departed="0" arrived="0" entered="2" left="0" laneChangedFrom="0" laneChangedTo="0"/>
    </interval>
    <interval begin="75.00" end="100.00" id="dump_25">
        <edge id="beg" sampledSeconds="61.92" traveltime="24.77" density="4.97" occupancy="1.49" waitingTime="0.00" speed="20.13" departed="2" arrived="0" entered="0" left="3" laneChangedFrom="0" laneChangedTo="0"/>
        <edge id="middle" sampledSeconds="163.91" traveltime="353.75" density="6.62" occupancy="1.99" waitingTime="0.00" speed="2.80" departed="0" arrived="0" entered="3" left="0" laneChangedFrom="0" laneChangedTo="0"/>
    </interval>
    <interval begin="100.00" end="125.00" id="dump_25">
        <edge id="beg" sampledSeconds="61.04" traveltime="23.30" density="4.90" occupancy="1.47" waitingTime="0.00" speed="21.40" departed="3" arrived="0" entered="0" left="3" laneChangedFrom="0" laneChangedTo="0"/>
        <edge id="middle" sampledSeconds="230.51" traveltime="34.39" density="9.31" occupancy="2.79" waitingTime="0.00" speed="28.80" departed="0" arrived="0" entered="3" left="0" laneChangedFrom="0" laneChangedTo="0"/>
    </interval>
    <interval begin="125.00" end="150.00" id="dump_25">
        <edge id="beg" sampledSeconds="57.22" traveltime="22.75" density="4.59" occupancy="1.38" waitingTime="0.00" speed="21.92" departed="2" arrived="0" entered="0" left="2" laneChangedFrom="0" laneChangedTo="0"/>
        <edge id="end" sampledSeconds="106.51" traveltime="22.30" density="8.55" occupancy="2.56" waitingTime="0.00" speed="22.35" departed="0" arrived="0" entered="10" left="0" laneChangedFrom="0" laneChangedTo="0"/>
        <edge id="middle" sampledSeconds="184.91" traveltime="44.23" density="7.47" occupancy="2.24" waitingTime="0.00" speed="22.39" departed="0" arrived="0" entered="2" left="10" laneChangedFrom="0" laneChangedTo="0"/>
    </interval>
    <interval begin="150.00" end="175.00" id="dump_25">
        <edge id="beg" sampledSeconds="60.84" traveltime="23.22" density="4.88" occupancy="1.46" waitingTime="0.00" speed="21.47" departed="3" arrived="0" entered="0" left="3" laneChangedFrom="0" laneChangedTo="0"/>
        <edge id="end" sampledSeconds="131.55" traveltime="18.91" density="10.55" occupancy="3.17" waitingTime="0.00" speed="26.37" departed="0" arrived="0" entered="3" left="11" laneChangedFrom="0" laneChangedTo="0"/>
        <edge id="middle" sampledSeconds="72.55" traveltime="29.33" density="2.93" occupancy="0.88" waitingTime="0.00" speed="33.78" departed="0" arrived="0" entered="3" left="3" laneChangedFrom="0" laneChangedTo="0"/>
        <edge id="rend" sampledSeconds="133.14" traveltime="17.99" density="10.65" occupancy="3.20" waitingTime="0.00" speed="27.80" departed="0" arrived="4" entered="11" left="0" laneChangedFrom="0" laneChangedTo="0"/>
    </interval>
    <interval begin="175.00" end="200.00" id="dump_25">
        <edge id="beg" sampledSeconds="57.22" traveltime="22.75" density="4.59" occupancy="1.38" waitingTime="0.00" speed="21.92" departed="2" arrived="0" entered="0" left="2" laneChangedFrom="0" laneChangedTo="0"/>
        <edge id="end" sampledSeconds="51.51" traveltime="20.59" density="4.13" occupancy="1.24" waitingTime="0.00" speed="24.21" departed="0" arrived="0" entered="2" left="2" laneChangedFrom="0" laneChangedTo="0"/>
        <edge id="middle" sampledSeconds="73.35" traveltime="29.22" density="2.96" occupancy="0.89" waitingTime="0.00" speed="33.90" departed="0" arrived="0" entered="2" left="2" laneChangedFrom="0" laneChangedTo="0"/>
        <edge id="rend" sampledSeconds="49.93" traveltime="17.99" density="3.99" occupancy="1.20" waitingTime="0.00" speed="27.80" departed="0" arrived="5" entered="2" left="0" laneChangedFrom="0" laneChangedTo="0"/>
    </interval>
    <interval begin="200.00" end="225.00" id="dump_25">
        <edge id="beg" sampledSeconds="62.15" traveltime="23.91" density="4.99" occupancy="1.50" waitingTime="0.00" speed="20.86" departed="3" arrived="0" entered="0" left="3" laneChangedFrom="0" laneChangedTo="0"/>
        <edge id="end" sampledSeconds="43.54" traveltime="19.67" density="3.49" occupancy="1.05" waitingTime="0.00" speed="25.35" departed="0" arrived="0" entered="2" left="2" laneChangedFrom="0" laneChangedTo="0"/>
        <edge id="middle" sampledSeconds="80.31" traveltime="65.27" density="3.24" occupancy="0.97" waitingTime="0.00" speed="15.18" departed="0" arrived="0" entered="2" left="2" laneChangedFrom="0" laneChangedTo="0"/>
        <edge id="rend" sampledSeconds="43.93" traveltime="17.99" density="3.51" occupancy="1.05" waitingTime="0.00" speed="27.80" departed="0" arrived="3" entered="2" left="0" laneChangedFrom="0" laneChangedTo="0"/>
    </interval>
    <interval begin="225.00" end="250.00" id="dump_25">
        <edge id="beg" sampledSeconds="58.23" traveltime="23.24" density="4.67" occupancy="1.40" waitingTime="0.00" speed="21.45" departed="2" arrived="0" entered="0" left="2" laneChangedFrom="0" laneChangedTo="0"/>
        <edge id="end" sampledSeconds="18.00" traveltime="18.75" density="1.44" occupancy="0.43" waitingTime="0.00" speed="26.59" departed="0" arrived="0" entered="0" left="2" laneChangedFrom="0" laneChangedTo="0"/>
        <edge id="middle" sampledSeconds="119.13" traveltime="71.26" density="4.81" occupancy="1.44" waitingTime="0.00" speed="13.90" departed="0" arrived="0" entered="3" left="0" laneChangedFrom="0" laneChangedTo="0"/>
        <edge id="rend" sampledSeconds="25.96" traveltime="17.99" density="2.08" occupancy="0.62" waitingTime="0.00" speed="27.80" departed="0" arrived="2" entered="2" left="0" laneChangedFrom="0" laneChangedTo="0"/>
    </interval>
    <interval begin="250.00" end="275.00" id="dump_25">
        <edge id="beg" sampledSeconds="62.15" traveltime="23.91" density="4.99" occupancy="1.50" waitingTime="0.00" speed="20.86" departed="3" arrived="0" entered="0" left="3" laneChangedFrom="0" laneChangedTo="0"/>
        <edge id="end" sampledSeconds="14.33" traveltime="22.40" density="1.15" occupancy="0.34" waitingTime="0.00" speed="22.26" departed="0" arrived="0" entered="1" left="0" laneChangedFrom="0" laneChangedTo="0"/>
        <edge id="middle" sampledSeconds="164.50" traveltime="72.30" density="6.64" occupancy="1.99" waitingTime="0.00" speed="13.70" departed="0" arrived="0" entered="2" left="1" laneChangedFrom="0" laneChangedTo="0"/>
    </interval>
    <interval begin="275.00" end="300.00" id="dump_25">
        <edge id="beg" sampledSeconds="58.23" traveltime="23.24" density="4.67" occupancy="1.40" waitingTime="0.00" speed="21.45" departed="2" arrived="0" entered="0" left="2" laneChangedFrom="0" laneChangedTo="0"/>
        <edge id="end" sampledSeconds="40.91" traveltime="20.75" density="3.28" occupancy="0.98" waitingTime="0.00" speed="24.03" departed="0" arrived="0" entered="3" left="2" laneChangedFrom="0" laneChangedTo="0"/>
        <edge id="middle" sampledSeconds="182.95" traveltime="72.97" density="7.39" occupancy="2.22" waitingTime="0.00" speed="13.57" departed="0" arrived="0" entered="3" left="3" laneChangedFrom="0" laneChangedTo="0"/>
        <edge id="rend" sampledSeconds="1.08" traveltime="17.99" density="0.09" occupancy="0.03" waitingTime="0.00" speed="27.80" departed="0" arrived="0" entered="2" left="0" laneChangedFrom="0" laneChangedTo="0"/>
    </interval>
    <interval begin="300.00" end="325.00" id="dump_25">
        <edge id="beg" sampledSeconds="20.15" traveltime="19.78" density="1.62" occupancy="0.49" waitingTime="0.00" speed="25.21" departed="0" arrived="0" entered="0" left="2" laneChangedFrom="0" laneChangedTo="0"/>
        <edge id="end" sampledSeconds="51.36" traveltime="20.27" density="4.12" occupancy="1.24" waitingTime="0.00" speed="24.59" departed="0" arrived="0" entered="2" left="2" laneChangedFrom="0" laneChangedTo="0"/>
        <edge id="middle" sampledSeconds="180.30" traveltime="72.42" density="7.28" occupancy="2.18" waitingTime="0.00" speed="13.68" departed="0" arrived="0" entered="2" left="2" laneChangedFrom="0" laneChangedTo="0"/>
        <edge id="rend" sampledSeconds="39.15" traveltime="17.99" density="3.13" occupancy="0.94" waitingTime="0.00" speed="27.80" departed="0" arrived="1" entered="2" left="0" laneChangedFrom="0" laneChangedTo="0"/>
    </interval>
    <interval begin="325.00" end="350.00" id="dump_25">
        <edge id="end" sampledSeconds="52.04" traveltime="20.08" density="4.18" occupancy="1.25" waitingTime="0.00" speed="24.83" departed="0" arrived="0" entered="3" left="3" laneChangedFrom="0" laneChangedTo="0"/>
        <edge id="middle" sampledSeconds="138.82" traveltime="73.54" density="5.61" occupancy="1.68" waitingTime="0.00" speed="13.47" departed="0" arrived="0" entered="0" left="3" laneChangedFrom="0" laneChangedTo="0"/>
        <edge id="rend" sampledSeconds="44.23" traveltime="17.99" density="3.54" occupancy="1.06" waitingTime="0.00" speed="27.80" departed="0" arrived="3" entered="3" left="0" laneChangedFrom="0" laneChangedTo="0"/>
    </interval>
    <interval begin="350.00" end="375.00" id="dump_25">
        <edge id="end" sampledSeconds="51.36" traveltime="20.27" density="4.12" occupancy="1.24" waitingTime="0.00" speed="24.59" departed="0" arrived="0" entered="2" left="2" laneChangedFrom="0" laneChangedTo="0"/>
        <edge id="middle" sampledSeconds="75.88" traveltime="74.07" density="3.06" occupancy="0.92" waitingTime="0.00" speed="13.37" departed="0" arrived="0" entered="0" left="2" laneChangedFrom="0" laneChangedTo="0"/>
        <edge id="rend" sampledSeconds="46.15" traveltime="17.99" density="3.69" occupancy="1.11" waitingTime="0.00" speed="27.80" departed="0" arrived="2" entered="2" left="0" laneChangedFrom="0" laneChangedTo="0"/>
    </interval>
    <interval begin="375.00" end="400.00" id="dump_25">
        <edge id="end" sampledSeconds="50.39" traveltime="19.73" density="4.04" occupancy="1.21" waitingTime="0.00" speed="25.27" departed="0" arrived="0" entered="2" left="3" laneChangedFrom="0" laneChangedTo="0"/>
        <edge id="middle" sampledSeconds="15.88" traveltime="86.93" density="0.64" occupancy="0.19" waitingTime="0.00" speed="11.39" departed="0" arrived="0" entered="0" left="2" laneChangedFrom="0" laneChangedTo="0"/>
        <edge id="rend" sampledSeconds="44.23" traveltime="17.99" density="3.54" occupancy="1.06" waitingTime="0.00" speed="27.80" departed="0" arrived="3" entered="3" left="0" laneChangedFrom="0" laneChangedTo="0"/>
    </interval>
    <interval begin="400.00" end="425.00" id="dump_25">
        <edge id="end" sampledSeconds="9.03" traveltime="17.93" density="0.72" occupancy="0.22" waitingTime="0.00" speed="27.80" departed="0" arrived="0" entered="0" left="1" laneChangedFrom="0" laneChangedTo="0"/>
        <edge id="rend" sampledSeconds="40.08" traveltime="17.99" density="3.21" occupancy="0.96" waitingTime="0.00" speed="27.80" departed="0" arrived="2" entered="1" left="0" laneChangedFrom="0" laneChangedTo="0"/>
    </interval>
    <interval begin="425.00" end="450.00" id="dump_25">
        <edge id="rend" sampledSeconds="2.00" traveltime="17.99" density="0.16" occupancy="0.05" waitingTime="0.00" speed="27.80" departed="0" arrived="1" entered="0" left="0" laneChangedFrom="0" laneChangedTo="0"/>
    </interval>
    <interval begin="450.00" end="475.00" id="dump_25"/>
    <interval begin="475.00" end="500.00" id="dump_25"/>
    <interval begin="500.00" end="525.00" id="dump_25"/>
    <interval begin="525.00" end="550.00" id="dump_25"/>
    <interval begin="550.00" end="575.00" id="dump_25"/>
    <interval begin="575.00" end="600.00" id="dump_25"/>
    <interval begin="600.00" end="625.00" id="dump_25"/>
    <interval begin="625.00" end="650.00" id="dump_25"/>
    <interval begin="650.00" end="675.00" id="dump_25"/>
    <interval begin="675.00" end="700.00" id="dump_25"/>
    <interval begin="700.00" end="725.00" id="dump_25"/>
    <interval begin="725.00" end="750.00" id="dump_25"/>
    <interval begin="750.00" end="775.00" id="dump_25"/>
    <interval begin="775.00" end="800.00" id="dump_25"/>
    <interval begin="800.00" end="825.00" id="dump_25"/>
    <interval begin="825.00" end="850.00" id="dump_25"/>
    <interval begin="850.00" end="875.00" id="dump_25"/>
    <interval begin="875.00" end="900.00" id="dump_25"/>
    <interval begin="900.00" end="925.00" id="dump_25"/>
    <interval begin="925.00" end="950.00" id="dump_25"/>
    <interval begin="950.00" end="975.00" id="dump_25"/>
    <interval begin="975.00" end="1000.00" id="dump_25"/>
</meandata>
