<?xml version="1.0" encoding="UTF-8"?>

<!-- generated on Tue Apr  5 13:45:11 2016 by SUMO Version dev-SVN-r20343
<?xml version="1.0" encoding="UTF-8"?>

<configuration xmlns:xsi="http://www.w3.org/2001/XMLSchema-instance" xsi:noNamespaceSchemaLocation="http://sumo.dlr.de/xsd/sumoConfiguration.xsd">

    <input>
        <net-file value="net.net.xml"/>
        <route-files value="input_routes.rou.xml"/>
        <additional-files value="input_additional.add.xml"/>
    </input>

    <output>
        <vehroute-output value="vehroutes.xml"/>
    </output>

    <report>
        <xml-validation value="never"/>
        <duration-log.disable value="true"/>
        <no-step-log value="true"/>
    </report>

</configuration>
-->

<meandata xmlns:xsi="http://www.w3.org/2001/XMLSchema-instance" xsi:noNamespaceSchemaLocation="http://sumo.dlr.de/xsd/meandata_file.xsd">
    <interval begin="0.00" end="300.00" id="expect10vehs">
        <edge id="beg" sampledSeconds="2250.50" traveltime="22.87" density="15.00" occupancy="7.50" waitingTime="0.00" speed="21.86" departed="100" arrived="0" entered="0" left="92" laneChangedFrom="0" laneChangedTo="0"/>
        <edge id="end" sampledSeconds="476.38" traveltime="39.03" density="1.46" occupancy="0.73" waitingTime="0.00" speed="27.80" departed="0" arrived="10" entered="92" left="82" laneChangedFrom="0" laneChangedTo="0" vaporized="82"/>
        <edge id="middle" sampledSeconds="46.00" traveltime="0.54" density="10.22" occupancy="5.11" waitingTime="0.00" speed="27.80" departed="0" arrived="0" entered="92" left="92" laneChangedFrom="0" laneChangedTo="0"/>
    </interval>
</meandata>
