<?xml version="1.0" encoding="UTF-8"?>

<!-- generated on Fri Sep  9 15:30:35 2016 by SUMO Version dev-SVN-r21424
<?xml version="1.0" encoding="UTF-8"?>

<configuration xmlns:xsi="http://www.w3.org/2001/XMLSchema-instance" xsi:noNamespaceSchemaLocation="http://sumo.dlr.de/xsd/sumoConfiguration.xsd">

    <input>
        <net-file value="net.net.xml"/>
        <route-files value="input_routes.rou.xml"/>
        <additional-files value="input_additional.add.xml"/>
    </input>

    <output>
        <vehroute-output value="vehroutes.xml"/>
    </output>

    <processing>
        <step-method.ballistic value="true"/>
    </processing>

    <report>
        <xml-validation value="never"/>
        <duration-log.disable value="true"/>
        <no-step-log value="true"/>
    </report>

</configuration>
-->

<meandata xmlns:xsi="http://www.w3.org/2001/XMLSchema-instance" xsi:noNamespaceSchemaLocation="http://sumo.dlr.de/xsd/meandata_file.xsd">
    <interval begin="0.00" end="300.00" id="expect10vehs">
        <edge id="beg" sampledSeconds="2250.50" traveltime="22.93" overlapTraveltime="23.10" density="15.00" occupancy="7.50" waitingTime="0.00" speed="21.86" departed="100" arrived="0" entered="0" left="92" laneChangedFrom="0" laneChangedTo="0"/>
        <edge id="end" sampledSeconds="435.38" traveltime="39.03" overlapTraveltime="39.21" density="1.34" occupancy="0.67" waitingTime="0.00" speed="27.80" departed="0" arrived="10" entered="92" left="82" laneChangedFrom="0" laneChangedTo="0" vaporized="82"/>
        <edge id="middle" sampledSeconds="46.00" traveltime="0.54" overlapTraveltime="0.72" density="10.22" occupancy="5.11" waitingTime="0.00" speed="27.80" departed="0" arrived="0" entered="92" left="92" laneChangedFrom="0" laneChangedTo="0"/>
    </interval>
</meandata>
