<?xml version="1.0" encoding="UTF-8"?>

<!-- generated on Fri Oct 16 10:34:04 2015 by SUMO Version dev-SVN-r19063
<?xml version="1.0" encoding="UTF-8"?>

<configuration xmlns:xsi="http://www.w3.org/2001/XMLSchema-instance" xsi:noNamespaceSchemaLocation="http://sumo.dlr.de/xsd/sumoConfiguration.xsd">

    <input>
        <net-file value="net.net.xml"/>
        <route-files value="input_routes.rou.xml"/>
    </input>

    <output>
        <fcd-output value="fcd.xml"/>
        <tripinfo-output value="tripinfos.xml"/>
    </output>

    <processing>
        <lateral-resolution value="0.8"/>
    </processing>

    <report>
        <xml-validation value="never"/>
        <no-step-log value="true"/>
    </report>

</configuration>
-->

<fcd-export xmlns:xsi="http://www.w3.org/2001/XMLSchema-instance" xsi:noNamespaceSchemaLocation="http://sumo.dlr.de/xsd/fcd_file.xsd">
    <timestep time="0.00">
        <vehicle id="cars.0" x="5.10" y="-4.65" angle="90.00" type="car" speed="0.00" pos="5.10" lane="beg_0" slope="0.00"/>
    </timestep>
    <timestep time="1.00">
        <vehicle id="cars.0" x="7.64" y="-4.65" angle="90.00" type="car" speed="2.54" pos="7.64" lane="beg_0" slope="0.00"/>
    </timestep>
    <timestep time="2.00">
        <vehicle id="cars.0" x="12.14" y="-4.65" angle="90.00" type="car" speed="4.50" pos="12.14" lane="beg_0" slope="0.00"/>
        <vehicle id="cars.1" x="5.10" y="-2.29" angle="90.00" type="car" speed="0.00" pos="5.10" lane="beg_1" slope="0.00"/>
    </timestep>
    <timestep time="3.00">
        <vehicle id="cars.0" x="18.92" y="-4.65" angle="90.00" type="car" speed="6.78" pos="18.92" lane="beg_0" slope="0.00"/>
        <vehicle id="cars.1" x="6.73" y="-2.29" angle="90.00" type="car" speed="1.63" pos="6.73" lane="beg_1" slope="0.00"/>
    </timestep>
    <timestep time="4.00">
        <vehicle id="cars.0" x="27.33" y="-4.65" angle="90.00" type="car" speed="8.41" pos="27.33" lane="beg_0" slope="0.00"/>
        <vehicle id="cars.1" x="10.26" y="-2.29" angle="90.00" type="car" speed="3.52" pos="10.26" lane="beg_1" slope="0.00"/>
    </timestep>
    <timestep time="5.00">
        <vehicle id="cars.0" x="37.76" y="-4.65" angle="90.00" type="car" speed="10.42" pos="37.76" lane="beg_0" slope="0.00"/>
        <vehicle id="cars.1" x="15.78" y="-2.29" angle="90.00" type="car" speed="5.52" pos="15.78" lane="beg_1" slope="0.00"/>
        <vehicle id="cars.2" x="5.10" y="-1.98" angle="90.00" type="car" speed="0.00" pos="5.10" lane="beg_1" slope="0.00"/>
    </timestep>
    <timestep time="6.00">
        <vehicle id="cars.0" x="50.36" y="-4.65" angle="90.00" type="car" speed="12.61" pos="50.36" lane="beg_0" slope="0.00"/>
        <vehicle id="cars.1" x="23.82" y="-2.29" angle="90.00" type="car" speed="8.04" pos="23.82" lane="beg_1" slope="0.00"/>
        <vehicle id="cars.2" x="6.56" y="-1.98" angle="90.00" type="car" speed="1.46" pos="6.56" lane="beg_1" slope="0.00"/>
        <vehicle id="cars.3" x="5.10" y="-5.59" angle="90.00" type="car" speed="0.00" pos="5.10" lane="beg_0" slope="0.00"/>
    </timestep>
    <timestep time="7.00">
        <vehicle id="cars.0" x="64.75" y="-4.65" angle="90.00" type="car" speed="14.38" pos="64.75" lane="beg_0" slope="0.00"/>
        <vehicle id="cars.1" x="33.79" y="-2.29" angle="90.00" type="car" speed="9.97" pos="33.79" lane="beg_1" slope="0.00"/>
        <vehicle id="cars.2" x="10.22" y="-1.98" angle="90.00" type="car" speed="3.66" pos="10.22" lane="beg_1" slope="0.00"/>
        <vehicle id="cars.3" x="6.48" y="-5.59" angle="90.00" type="car" speed="1.38" pos="6.48" lane="beg_0" slope="0.00"/>
    </timestep>
    <timestep time="8.00">
        <vehicle id="cars.0" x="79.79" y="-4.65" angle="90.00" type="car" speed="15.04" pos="79.79" lane="beg_0" slope="0.00"/>
        <vehicle id="cars.1" x="44.90" y="-2.29" angle="90.00" type="car" speed="11.10" pos="44.90" lane="beg_1" slope="0.00"/>
        <vehicle id="cars.2" x="15.33" y="-1.98" angle="90.00" type="car" speed="5.11" pos="15.33" lane="beg_1" slope="0.00"/>
        <vehicle id="cars.3" x="9.75" y="-5.59" angle="90.00" type="car" speed="3.27" pos="9.75" lane="beg_0" slope="0.00"/>
        <vehicle id="cars.4" x="5.10" y="-2.30" angle="90.00" type="car" speed="0.00" pos="5.10" lane="beg_1" slope="0.00"/>
    </timestep>
    <timestep time="9.00">
        <vehicle id="cars.0" x="94.10" y="-4.65" angle="90.00" type="car" speed="14.31" pos="94.10" lane="beg_0" slope="0.00"/>
        <vehicle id="cars.1" x="56.68" y="-2.29" angle="90.00" type="car" speed="11.78" pos="56.68" lane="beg_1" slope="0.00"/>
        <vehicle id="cars.2" x="22.05" y="-1.98" angle="90.00" type="car" speed="6.71" pos="22.05" lane="beg_1" slope="0.00"/>
        <vehicle id="cars.3" x="15.58" y="-5.59" angle="90.00" type="car" speed="5.83" pos="15.58" lane="beg_0" slope="0.00"/>
        <vehicle id="cars.4" x="7.49" y="-2.30" angle="90.00" type="car" speed="2.39" pos="7.49" lane="beg_1" slope="0.00"/>
    </timestep>
    <timestep time="10.00">
        <vehicle id="cars.0" x="109.49" y="-4.65" angle="90.00" type="car" speed="15.39" pos="109.49" lane="beg_0" slope="0.00"/>
        <vehicle id="cars.1" x="67.97" y="-2.29" angle="90.00" type="car" speed="11.29" pos="67.97" lane="beg_1" slope="0.00"/>
        <vehicle id="cars.2" x="30.93" y="-1.98" angle="90.00" type="car" speed="8.88" pos="30.93" lane="beg_1" slope="0.00"/>
        <vehicle id="cars.3" x="23.48" y="-5.59" angle="90.00" type="car" speed="7.90" pos="23.48" lane="beg_0" slope="0.00"/>
        <vehicle id="cars.4" x="12.32" y="-2.30" angle="90.00" type="car" speed="4.82" pos="12.32" lane="beg_1" slope="0.00"/>
    </timestep>
    <timestep time="11.00">
        <vehicle id="cars.0" x="124.73" y="-4.65" angle="90.00" type="car" speed="15.24" pos="124.73" lane="beg_0" slope="0.00"/>
        <vehicle id="cars.1" x="79.85" y="-2.29" angle="90.00" type="car" speed="11.89" pos="79.85" lane="beg_1" slope="0.00"/>
        <vehicle id="cars.2" x="42.20" y="-1.98" angle="90.00" type="car" speed="11.27" pos="42.20" lane="beg_1" slope="0.00"/>
        <vehicle id="cars.3" x="32.92" y="-5.59" angle="90.00" type="car" speed="9.44" pos="32.92" lane="beg_0" slope="0.00"/>
        <vehicle id="cars.4" x="19.00" y="-2.30" angle="90.00" type="car" speed="6.68" pos="19.00" lane="beg_1" slope="0.00"/>
        <vehicle id="cars.5" x="5.10" y="-4.71" angle="90.00" type="car" speed="0.00" pos="5.10" lane="beg_0" slope="0.00"/>
    </timestep>
    <timestep time="12.00">
        <vehicle id="cars.0" x="139.08" y="-4.65" angle="90.00" type="car" speed="14.34" pos="139.08" lane="beg_0" slope="0.00"/>
        <vehicle id="cars.1" x="91.10" y="-2.29" angle="90.00" type="car" speed="11.25" pos="91.10" lane="beg_1" slope="0.00"/>
        <vehicle id="cars.2" x="55.29" y="-1.98" angle="90.00" type="car" speed="13.09" pos="55.29" lane="beg_1" slope="0.00"/>
        <vehicle id="cars.3" x="43.72" y="-5.59" angle="90.00" type="car" speed="10.79" pos="43.72" lane="beg_0" slope="0.00"/>
        <vehicle id="cars.4" x="27.38" y="-2.30" angle="90.00" type="car" speed="8.38" pos="27.38" lane="beg_1" slope="0.00"/>
        <vehicle id="cars.5" x="7.30" y="-4.71" angle="90.00" type="car" speed="2.20" pos="7.30" lane="beg_0" slope="0.00"/>
        <vehicle id="cars.6" x="5.10" y="-1.54" angle="90.00" type="car" speed="0.00" pos="5.10" lane="beg_1" slope="0.00"/>
    </timestep>
    <timestep time="13.00">
        <vehicle id="cars.0" x="154.43" y="-4.65" angle="90.00" type="car" speed="15.36" pos="154.43" lane="beg_0" slope="0.00"/>
        <vehicle id="cars.1" x="103.05" y="-2.29" angle="90.00" type="car" speed="11.96" pos="103.05" lane="beg_1" slope="0.00"/>
        <vehicle id="cars.2" x="68.23" y="-5.28" angle="90.00" type="car" speed="12.94" pos="68.23" lane="beg_0" slope="0.00"/>
        <vehicle id="cars.3" x="57.08" y="-5.59" angle="90.00" type="car" speed="13.36" pos="57.08" lane="beg_0" slope="0.00"/>
        <vehicle id="cars.4" x="38.13" y="-2.30" angle="90.00" type="car" speed="10.74" pos="38.13" lane="beg_1" slope="0.00"/>
        <vehicle id="cars.5" x="11.74" y="-4.71" angle="90.00" type="car" speed="4.44" pos="11.74" lane="beg_0" slope="0.00"/>
        <vehicle id="cars.6" x="6.87" y="-1.54" angle="90.00" type="car" speed="1.77" pos="6.87" lane="beg_1" slope="0.00"/>
    </timestep>
    <timestep time="14.00">
        <vehicle id="cars.0" x="169.76" y="-4.65" angle="90.00" type="car" speed="15.32" pos="169.76" lane="beg_0" slope="0.00"/>
        <vehicle id="cars.1" x="114.52" y="-5.59" angle="90.00" type="car" speed="11.47" pos="114.52" lane="beg_0" slope="0.00"/>
        <vehicle id="cars.2" x="81.11" y="-5.28" angle="90.00" type="car" speed="12.89" pos="81.11" lane="beg_0" slope="0.00"/>
        <vehicle id="cars.3" x="66.51" y="-5.59" angle="90.00" type="car" speed="9.43" pos="66.51" lane="beg_0" slope="0.00"/>
        <vehicle id="cars.4" x="50.27" y="-2.30" angle="90.00" type="car" speed="12.14" pos="50.27" lane="beg_1" slope="0.00"/>
        <vehicle id="cars.5" x="18.33" y="-4.71" angle="90.00" type="car" speed="6.60" pos="18.33" lane="beg_0" slope="0.00"/>
        <vehicle id="cars.6" x="11.14" y="-1.54" angle="90.00" type="car" speed="4.28" pos="11.14" lane="beg_1" slope="0.00"/>
    </timestep>
    <timestep time="15.00">
        <vehicle id="cars.0" x="185.25" y="-4.65" angle="90.00" type="car" speed="15.50" pos="185.25" lane="beg_0" slope="0.00"/>
        <vehicle id="cars.1" x="126.59" y="-5.59" angle="90.00" type="car" speed="12.07" pos="126.59" lane="beg_0" slope="0.00"/>
        <vehicle id="cars.2" x="94.35" y="-5.28" angle="90.00" type="car" speed="13.24" pos="94.35" lane="beg_0" slope="0.00"/>
        <vehicle id="cars.3" x="77.01" y="-5.59" angle="90.00" type="car" speed="10.50" pos="77.01" lane="beg_0" slope="0.00"/>
        <vehicle id="cars.4" x="64.73" y="-2.30" angle="90.00" type="car" speed="14.46" pos="64.73" lane="beg_1" slope="0.00"/>
        <vehicle id="cars.5" x="27.15" y="-4.71" angle="90.00" type="car" speed="8.82" pos="27.15" lane="beg_0" slope="0.00"/>
        <vehicle id="cars.6" x="17.79" y="-1.54" angle="90.00" type="car" speed="6.64" pos="17.79" lane="beg_1" slope="0.00"/>
        <vehicle id="cars.7" x="5.10" y="-4.70" angle="90.00" type="car" speed="0.00" pos="5.10" lane="beg_0" slope="0.00"/>
    </timestep>
    <timestep time="16.00">
        <vehicle id="cars.0" x="200.30" y="-4.65" angle="90.00" type="car" speed="15.05" pos="200.30" lane="beg_0" slope="0.00"/>
        <vehicle id="cars.1" x="138.10" y="-5.59" angle="90.00" type="car" speed="11.51" pos="138.10" lane="beg_0" slope="0.00"/>
        <vehicle id="cars.2" x="107.46" y="-5.28" angle="90.00" type="car" speed="13.11" pos="107.46" lane="beg_0" slope="0.00"/>
        <vehicle id="cars.3" x="88.36" y="-5.59" angle="90.00" type="car" speed="11.35" pos="88.36" lane="beg_0" slope="0.00"/>
        <vehicle id="cars.4" x="78.91" y="-2.30" angle="90.00" type="car" speed="14.18" pos="78.91" lane="beg_1" slope="0.00"/>
        <vehicle id="cars.5" x="35.81" y="-4.71" angle="90.00" type="car" speed="8.65" pos="35.81" lane="beg_0" slope="0.00"/>
        <vehicle id="cars.6" x="26.23" y="-1.54" angle="90.00" type="car" speed="8.44" pos="26.23" lane="beg_1" slope="0.00"/>
        <vehicle id="cars.7" x="7.23" y="-4.70" angle="90.00" type="car" speed="2.13" pos="7.23" lane="beg_0" slope="0.00"/>
        <vehicle id="cars.8" x="5.10" y="-2.32" angle="90.00" type="car" speed="0.00" pos="5.10" lane="beg_1" slope="0.00"/>
    </timestep>
    <timestep time="17.00">
        <vehicle id="cars.0" x="215.05" y="-4.65" angle="90.00" type="car" speed="14.74" pos="215.05" lane="beg_0" slope="0.00"/>
        <vehicle id="cars.1" x="149.08" y="-5.59" angle="90.00" type="car" speed="10.97" pos="149.08" lane="beg_0" slope="0.00"/>
        <vehicle id="cars.2" x="121.00" y="-5.28" angle="90.00" type="car" speed="13.54" pos="121.00" lane="beg_0" slope="0.00"/>
        <vehicle id="cars.3" x="100.41" y="-5.59" angle="90.00" type="car" speed="12.05" pos="100.41" lane="beg_0" slope="0.00"/>
        <vehicle id="cars.4" x="93.25" y="-2.30" angle="90.00" type="car" speed="14.34" pos="93.25" lane="beg_1" slope="0.00"/>
        <vehicle id="cars.5" x="44.08" y="-4.71" angle="90.00" type="car" speed="8.27" pos="44.08" lane="beg_0" slope="0.00"/>
        <vehicle id="cars.6" x="37.14" y="-1.54" angle="90.00" type="car" speed="10.91" pos="37.14" lane="beg_1" slope="0.00"/>
        <vehicle id="cars.7" x="11.36" y="-4.70" angle="90.00" type="car" speed="4.13" pos="11.36" lane="beg_0" slope="0.00"/>
        <vehicle id="cars.8" x="6.56" y="-2.32" angle="90.00" type="car" speed="1.46" pos="6.56" lane="beg_1" slope="0.00"/>
    </timestep>
    <timestep time="18.00">
        <vehicle id="cars.0" x="230.22" y="-4.65" angle="90.00" type="car" speed="15.17" pos="230.22" lane="beg_0" slope="0.00"/>
        <vehicle id="cars.1" x="160.72" y="-5.59" angle="90.00" type="car" speed="11.64" pos="160.72" lane="beg_0" slope="0.00"/>
        <vehicle id="cars.2" x="134.56" y="-5.28" angle="90.00" type="car" speed="13.56" pos="134.56" lane="beg_0" slope="0.00"/>
        <vehicle id="cars.3" x="112.90" y="-5.59" angle="90.00" type="car" speed="12.49" pos="112.90" lane="beg_0" slope="0.00"/>
        <vehicle id="cars.4" x="106.84" y="-2.30" angle="90.00" type="car" speed="13.60" pos="106.84" lane="beg_1" slope="0.00"/>
        <vehicle id="cars.5" x="53.14" y="-4.71" angle="90.00" type="car" speed="9.06" pos="53.14" lane="beg_0" slope="0.00"/>
        <vehicle id="cars.6" x="49.90" y="-1.54" angle="90.00" type="car" speed="12.76" pos="49.90" lane="beg_1" slope="0.00"/>
        <vehicle id="cars.7" x="17.48" y="-4.70" angle="90.00" type="car" speed="6.13" pos="17.48" lane="beg_0" slope="0.00"/>
        <vehicle id="cars.8" x="9.36" y="-2.32" angle="90.00" type="car" speed="2.80" pos="9.36" lane="beg_1" slope="0.00"/>
    </timestep>
    <timestep time="19.00">
        <vehicle id="cars.0" x="244.85" y="-4.65" angle="90.00" type="car" speed="14.63" pos="244.85" lane="beg_0" slope="0.00"/>
        <vehicle id="cars.1" x="172.71" y="-5.59" angle="90.00" type="car" speed="11.99" pos="172.71" lane="beg_0" slope="0.00"/>
        <vehicle id="cars.2" x="147.27" y="-5.28" angle="90.00" type="car" speed="12.71" pos="147.27" lane="beg_0" slope="0.00"/>
        <vehicle id="cars.3" x="126.13" y="-5.59" angle="90.00" type="car" speed="13.23" pos="126.13" lane="beg_0" slope="0.00"/>
        <vehicle id="cars.4" x="121.21" y="-2.30" angle="90.00" type="car" speed="14.37" pos="121.21" lane="beg_1" slope="0.00"/>
        <vehicle id="cars.5" x="61.72" y="-4.71" angle="90.00" type="car" speed="8.57" pos="61.72" lane="beg_0" slope="0.00"/>
        <vehicle id="cars.6" x="64.14" y="-1.54" angle="90.00" type="car" speed="14.24" pos="64.14" lane="beg_1" slope="0.00"/>
        <vehicle id="cars.7" x="26.16" y="-4.70" angle="90.00" type="car" speed="8.67" pos="26.16" lane="beg_0" slope="0.00"/>
        <vehicle id="cars.8" x="14.60" y="-2.32" angle="90.00" type="car" speed="5.24" pos="14.60" lane="beg_1" slope="0.00"/>
        <vehicle id="cars.9" x="5.10" y="-4.70" angle="90.00" type="car" speed="0.00" pos="5.10" lane="beg_0" slope="0.00"/>
    </timestep>
    <timestep time="20.00">
        <vehicle id="cars.0" x="259.23" y="-4.65" angle="90.00" type="car" speed="14.38" pos="259.23" lane="beg_0" slope="0.00"/>
        <vehicle id="cars.1" x="184.44" y="-5.59" angle="90.00" type="car" speed="11.73" pos="184.44" lane="beg_0" slope="0.00"/>
        <vehicle id="cars.2" x="160.27" y="-3.15" angle="90.00" type="car" speed="12.99" pos="160.27" lane="beg_1" slope="0.00"/>
        <vehicle id="cars.3" x="138.59" y="-5.59" angle="90.00" type="car" speed="12.46" pos="138.59" lane="beg_0" slope="0.00"/>
        <vehicle id="cars.4" x="134.67" y="-2.30" angle="90.00" type="car" speed="13.46" pos="134.67" lane="beg_1" slope="0.00"/>
        <vehicle id="cars.5" x="70.15" y="-4.71" angle="90.00" type="car" speed="8.43" pos="70.15" lane="beg_0" slope="0.00"/>
        <vehicle id="cars.6" x="78.20" y="-1.54" angle="90.00" type="car" speed="14.06" pos="78.20" lane="beg_1" slope="0.00"/>
        <vehicle id="cars.7" x="36.52" y="-4.70" angle="90.00" type="car" speed="10.36" pos="36.52" lane="beg_0" slope="0.00"/>
        <vehicle id="cars.8" x="22.24" y="-2.32" angle="90.00" type="car" speed="7.64" pos="22.24" lane="beg_1" slope="0.00"/>
        <vehicle id="cars.9" x="7.21" y="-4.70" angle="90.00" type="car" speed="2.11" pos="7.21" lane="beg_0" slope="0.00"/>
    </timestep>
    <timestep time="21.00">
        <vehicle id="cars.0" x="273.67" y="-4.65" angle="90.00" type="car" speed="14.44" pos="273.67" lane="beg_0" slope="0.00"/>
        <vehicle id="cars.1" x="195.78" y="-5.59" angle="90.00" type="car" speed="11.34" pos="195.78" lane="beg_0" slope="0.00"/>
        <vehicle id="cars.2" x="173.56" y="-3.15" angle="90.00" type="car" speed="13.29" pos="173.56" lane="beg_1" slope="0.00"/>
        <vehicle id="cars.3" x="152.59" y="-5.59" angle="90.00" type="car" speed="14.00" pos="152.59" lane="beg_0" slope="0.00"/>
        <vehicle id="cars.4" x="148.30" y="-2.30" angle="90.00" type="car" speed="13.62" pos="148.30" lane="beg_1" slope="0.00"/>
        <vehicle id="cars.5" x="78.12" y="-4.71" angle="90.00" type="car" speed="7.97" pos="78.12" lane="beg_0" slope="0.00"/>
        <vehicle id="cars.6" x="92.62" y="-1.54" angle="90.00" type="car" speed="14.42" pos="92.62" lane="beg_1" slope="0.00"/>
        <vehicle id="cars.7" x="46.53" y="-4.70" angle="90.00" type="car" speed="10.01" pos="46.53" lane="beg_0" slope="0.00"/>
        <vehicle id="cars.8" x="32.34" y="-2.32" angle="90.00" type="car" speed="10.10" pos="32.34" lane="beg_1" slope="0.00"/>
        <vehicle id="cars.9" x="11.89" y="-4.70" angle="90.00" type="car" speed="4.69" pos="11.89" lane="beg_0" slope="0.00"/>
    </timestep>
    <timestep time="22.00">
        <vehicle id="cars.0" x="289.01" y="-4.65" angle="90.00" type="car" speed="15.34" pos="289.01" lane="beg_0" slope="0.00"/>
        <vehicle id="cars.1" x="207.51" y="-5.59" angle="90.00" type="car" speed="11.73" pos="207.51" lane="beg_0" slope="0.00"/>
        <vehicle id="cars.2" x="186.46" y="-3.15" angle="90.00" type="car" speed="12.90" pos="186.46" lane="beg_1" slope="0.00"/>
        <vehicle id="cars.3" x="167.74" y="-5.59" angle="90.00" type="car" speed="15.15" pos="167.74" lane="beg_0" slope="0.00"/>
        <vehicle id="cars.4" x="161.60" y="-2.30" angle="90.00" type="car" speed="13.31" pos="161.60" lane="beg_1" slope="0.00"/>
        <vehicle id="cars.5" x="86.70" y="-4.71" angle="90.00" type="car" speed="8.59" pos="86.70" lane="beg_0" slope="0.00"/>
        <vehicle id="cars.6" x="107.16" y="-1.54" angle="90.00" type="car" speed="14.54" pos="107.16" lane="beg_1" slope="0.00"/>
        <vehicle id="cars.7" x="56.81" y="-4.70" angle="90.00" type="car" speed="10.28" pos="56.81" lane="beg_0" slope="0.00"/>
        <vehicle id="cars.8" x="43.33" y="-2.32" angle="90.00" type="car" speed="10.99" pos="43.33" lane="beg_1" slope="0.00"/>
        <vehicle id="cars.9" x="19.18" y="-4.70" angle="90.00" type="car" speed="7.29" pos="19.18" lane="beg_0" slope="0.00"/>
    </timestep>
    <timestep time="23.00">
        <vehicle id="cars.0" x="303.38" y="-4.65" angle="90.00" type="car" speed="14.37" pos="303.38" lane="beg_0" slope="0.00"/>
        <vehicle id="cars.1" x="219.15" y="-5.59" angle="90.00" type="car" speed="11.64" pos="219.15" lane="beg_0" slope="0.00"/>
        <vehicle id="cars.2" x="199.79" y="-3.15" angle="90.00" type="car" speed="13.32" pos="199.79" lane="beg_1" slope="0.00"/>
        <vehicle id="cars.3" x="183.77" y="-5.59" angle="90.00" type="car" speed="16.04" pos="183.77" lane="beg_0" slope="0.00"/>
        <vehicle id="cars.4" x="174.58" y="-2.30" angle="90.00" type="car" speed="12.97" pos="174.58" lane="beg_1" slope="0.00"/>
        <vehicle id="cars.5" x="94.79" y="-4.71" angle="90.00" type="car" speed="8.09" pos="94.79" lane="beg_0" slope="0.00"/>
        <vehicle id="cars.6" x="122.30" y="-1.54" angle="90.00" type="car" speed="15.15" pos="122.30" lane="beg_1" slope="0.00"/>
        <vehicle id="cars.7" x="66.47" y="-4.70" angle="90.00" type="car" speed="9.66" pos="66.47" lane="beg_0" slope="0.00"/>
        <vehicle id="cars.8" x="54.86" y="-2.32" angle="90.00" type="car" speed="11.53" pos="54.86" lane="beg_1" slope="0.00"/>
        <vehicle id="cars.9" x="28.56" y="-4.70" angle="90.00" type="car" speed="9.38" pos="28.56" lane="beg_0" slope="0.00"/>
    </timestep>
    <timestep time="24.00">
        <vehicle id="cars.0" x="318.34" y="-4.65" angle="90.00" type="car" speed="14.95" pos="318.34" lane="beg_0" slope="0.00"/>
        <vehicle id="cars.1" x="230.23" y="-5.59" angle="90.00" type="car" speed="11.08" pos="230.23" lane="beg_0" slope="0.00"/>
        <vehicle id="cars.2" x="212.67" y="-3.15" angle="90.00" type="car" speed="12.88" pos="212.67" lane="beg_1" slope="0.00"/>
        <vehicle id="cars.3" x="199.51" y="-5.59" angle="90.00" type="car" speed="15.73" pos="199.51" lane="beg_0" slope="0.00"/>
        <vehicle id="cars.4" x="188.41" y="-2.30" angle="90.00" type="car" speed="13.83" pos="188.41" lane="beg_1" slope="0.00"/>
        <vehicle id="cars.5" x="103.72" y="-4.71" angle="90.00" type="car" speed="8.93" pos="103.72" lane="beg_0" slope="0.00"/>
        <vehicle id="cars.6" x="136.25" y="-1.54" angle="90.00" type="car" speed="13.95" pos="136.25" lane="beg_1" slope="0.00"/>
        <vehicle id="cars.7" x="76.99" y="-4.70" angle="90.00" type="car" speed="10.52" pos="76.99" lane="beg_0" slope="0.00"/>
        <vehicle id="cars.8" x="66.01" y="-2.32" angle="90.00" type="car" speed="11.15" pos="66.01" lane="beg_1" slope="0.00"/>
        <vehicle id="cars.9" x="37.89" y="-4.70" angle="90.00" type="car" speed="9.33" pos="37.89" lane="beg_0" slope="0.00"/>
    </timestep>
    <timestep time="25.00">
        <vehicle id="cars.0" x="332.85" y="-4.65" angle="90.00" type="car" speed="14.51" pos="332.85" lane="beg_0" slope="0.00"/>
        <vehicle id="cars.1" x="242.20" y="-5.59" angle="90.00" type="car" speed="11.97" pos="242.20" lane="beg_0" slope="0.00"/>
        <vehicle id="cars.2" x="226.43" y="-3.15" angle="90.00" type="car" speed="13.76" pos="226.43" lane="beg_1" slope="0.00"/>
        <vehicle id="cars.3" x="213.47" y="-5.59" angle="90.00" type="car" speed="13.97" pos="213.47" lane="beg_0" slope="0.00"/>
        <vehicle id="cars.4" x="201.47" y="-2.30" angle="90.00" type="car" speed="13.07" pos="201.47" lane="beg_1" slope="0.00"/>
        <vehicle id="cars.5" x="112.74" y="-4.71" angle="90.00" type="car" speed="9.03" pos="112.74" lane="beg_0" slope="0.00"/>
        <vehicle id="cars.6" x="150.83" y="-1.54" angle="90.00" type="car" speed="14.58" pos="150.83" lane="beg_1" slope="0.00"/>
        <vehicle id="cars.7" x="86.69" y="-4.70" angle="90.00" type="car" speed="9.70" pos="86.69" lane="beg_0" slope="0.00"/>
        <vehicle id="cars.8" x="77.69" y="-2.32" angle="90.00" type="car" speed="11.69" pos="77.69" lane="beg_1" slope="0.00"/>
        <vehicle id="cars.9" x="47.66" y="-4.70" angle="90.00" type="car" speed="9.77" pos="47.66" lane="beg_0" slope="0.00"/>
    </timestep>
    <timestep time="26.00">
        <vehicle id="cars.0" x="347.21" y="-4.65" angle="90.00" type="car" speed="14.36" pos="347.21" lane="beg_0" slope="0.00"/>
        <vehicle id="cars.1" x="253.96" y="-5.59" angle="90.00" type="car" speed="11.76" pos="253.96" lane="beg_0" slope="0.00"/>
        <vehicle id="cars.2" x="240.48" y="-3.15" angle="90.00" type="car" speed="14.05" pos="240.48" lane="beg_1" slope="0.00"/>
        <vehicle id="cars.3" x="227.81" y="-5.59" angle="90.00" type="car" speed="14.34" pos="227.81" lane="beg_0" slope="0.00"/>
        <vehicle id="cars.4" x="215.86" y="-2.30" angle="90.00" type="car" speed="14.39" pos="215.86" lane="beg_1" slope="0.00"/>
        <vehicle id="cars.5" x="120.83" y="-4.71" angle="90.00" type="car" speed="8.09" pos="120.83" lane="beg_0" slope="0.00"/>
        <vehicle id="cars.6" x="165.70" y="-1.54" angle="90.00" type="car" speed="14.87" pos="165.70" lane="beg_1" slope="0.00"/>
        <vehicle id="cars.7" x="96.81" y="-4.70" angle="90.00" type="car" speed="10.12" pos="96.81" lane="beg_0" slope="0.00"/>
        <vehicle id="cars.8" x="89.61" y="-2.32" angle="90.00" type="car" speed="11.91" pos="89.61" lane="beg_1" slope="0.00"/>
        <vehicle id="cars.9" x="57.32" y="-4.70" angle="90.00" type="car" speed="9.67" pos="57.32" lane="beg_0" slope="0.00"/>
    </timestep>
    <timestep time="27.00">
        <vehicle id="cars.0" x="362.03" y="-4.65" angle="90.00" type="car" speed="14.82" pos="362.03" lane="beg_0" slope="0.00"/>
        <vehicle id="cars.1" x="265.10" y="-5.59" angle="90.00" type="car" speed="11.15" pos="265.10" lane="beg_0" slope="0.00"/>
        <vehicle id="cars.2" x="254.35" y="-3.15" angle="90.00" type="car" speed="13.87" pos="254.35" lane="beg_1" slope="0.00"/>
        <vehicle id="cars.3" x="241.20" y="-5.59" angle="90.00" type="car" speed="13.39" pos="241.20" lane="beg_0" slope="0.00"/>
        <vehicle id="cars.4" x="229.37" y="-2.30" angle="90.00" type="car" speed="13.51" pos="229.37" lane="beg_1" slope="0.00"/>
        <vehicle id="cars.5" x="129.92" y="-4.71" angle="90.00" type="car" speed="9.09" pos="129.92" lane="beg_0" slope="0.00"/>
        <vehicle id="cars.6" x="180.58" y="-1.54" angle="90.00" type="car" speed="14.88" pos="180.58" lane="beg_1" slope="0.00"/>
        <vehicle id="cars.7" x="106.79" y="-4.70" angle="90.00" type="car" speed="9.98" pos="106.79" lane="beg_0" slope="0.00"/>
        <vehicle id="cars.8" x="100.58" y="-2.32" angle="90.00" type="car" speed="10.97" pos="100.58" lane="beg_1" slope="0.00"/>
        <vehicle id="cars.9" x="67.20" y="-4.70" angle="90.00" type="car" speed="9.87" pos="67.20" lane="beg_0" slope="0.00"/>
    </timestep>
    <timestep time="28.00">
        <vehicle id="cars.0" x="376.99" y="-4.65" angle="90.00" type="car" speed="14.96" pos="376.99" lane="beg_0" slope="0.00"/>
        <vehicle id="cars.1" x="277.27" y="-5.59" angle="90.00" type="car" speed="12.17" pos="277.27" lane="beg_0" slope="0.00"/>
        <vehicle id="cars.2" x="267.55" y="-3.15" angle="90.00" type="car" speed="13.20" pos="267.55" lane="beg_1" slope="0.00"/>
        <vehicle id="cars.3" x="253.34" y="-5.59" angle="90.00" type="car" speed="12.13" pos="253.34" lane="beg_0" slope="0.00"/>
        <vehicle id="cars.4" x="243.14" y="-2.30" angle="90.00" type="car" speed="13.77" pos="243.14" lane="beg_1" slope="0.00"/>
        <vehicle id="cars.5" x="139.01" y="-4.71" angle="90.00" type="car" speed="9.09" pos="139.01" lane="beg_0" slope="0.00"/>
        <vehicle id="cars.6" x="194.87" y="-1.54" angle="90.00" type="car" speed="14.30" pos="194.87" lane="beg_1" slope="0.00"/>
        <vehicle id="cars.7" x="116.95" y="-4.70" angle="90.00" type="car" speed="10.16" pos="116.95" lane="beg_0" slope="0.00"/>
        <vehicle id="cars.8" x="112.59" y="-2.32" angle="90.00" type="car" speed="12.01" pos="112.59" lane="beg_1" slope="0.00"/>
        <vehicle id="cars.9" x="76.08" y="-4.70" angle="90.00" type="car" speed="8.88" pos="76.08" lane="beg_0" slope="0.00"/>
    </timestep>
    <timestep time="29.00">
        <vehicle id="cars.0" x="392.03" y="-4.65" angle="90.00" type="car" speed="15.04" pos="392.03" lane="beg_0" slope="0.00"/>
        <vehicle id="cars.1" x="289.30" y="-5.59" angle="90.00" type="car" speed="12.03" pos="289.30" lane="beg_0" slope="0.00"/>
        <vehicle id="cars.2" x="280.77" y="-3.15" angle="90.00" type="car" speed="13.22" pos="280.77" lane="beg_1" slope="0.00"/>
        <vehicle id="cars.3" x="266.22" y="-5.59" angle="90.00" type="car" speed="12.88" pos="266.22" lane="beg_0" slope="0.00"/>
        <vehicle id="cars.4" x="256.56" y="-2.30" angle="90.00" type="car" speed="13.42" pos="256.56" lane="beg_1" slope="0.00"/>
        <vehicle id="cars.5" x="148.19" y="-4.71" angle="90.00" type="car" speed="9.18" pos="148.19" lane="beg_0" slope="0.00"/>
        <vehicle id="cars.6" x="209.79" y="-1.54" angle="90.00" type="car" speed="14.91" pos="209.79" lane="beg_1" slope="0.00"/>
        <vehicle id="cars.7" x="126.92" y="-4.70" angle="90.00" type="car" speed="9.97" pos="126.92" lane="beg_0" slope="0.00"/>
        <vehicle id="cars.8" x="123.47" y="-2.32" angle="90.00" type="car" speed="10.89" pos="123.47" lane="beg_1" slope="0.00"/>
        <vehicle id="cars.9" x="85.70" y="-4.70" angle="90.00" type="car" speed="9.62" pos="85.70" lane="beg_0" slope="0.00"/>
    </timestep>
    <timestep time="30.00">
        <vehicle id="cars.0" x="406.40" y="-4.65" angle="90.00" type="car" speed="14.37" pos="406.40" lane="beg_0" slope="0.00"/>
        <vehicle id="cars.1" x="301.18" y="-5.59" angle="90.00" type="car" speed="11.88" pos="301.18" lane="beg_0" slope="0.00"/>
        <vehicle id="cars.2" x="294.24" y="-3.15" angle="90.00" type="car" speed="13.47" pos="294.24" lane="beg_1" slope="0.00"/>
        <vehicle id="cars.3" x="279.19" y="-5.59" angle="90.00" type="car" speed="12.97" pos="279.19" lane="beg_0" slope="0.00"/>
        <vehicle id="cars.4" x="269.49" y="-2.30" angle="90.00" type="car" speed="12.94" pos="269.49" lane="beg_1" slope="0.00"/>
        <vehicle id="cars.5" x="156.93" y="-4.71" angle="90.00" type="car" speed="8.75" pos="156.93" lane="beg_0" slope="0.00"/>
        <vehicle id="cars.6" x="223.77" y="-1.54" angle="90.00" type="car" speed="13.99" pos="223.77" lane="beg_1" slope="0.00"/>
        <vehicle id="cars.7" x="137.29" y="-4.70" angle="90.00" type="car" speed="10.37" pos="137.29" lane="beg_0" slope="0.00"/>
        <vehicle id="cars.8" x="135.35" y="-2.32" angle="90.00" type="car" speed="11.88" pos="135.35" lane="beg_1" slope="0.00"/>
        <vehicle id="cars.9" x="95.03" y="-4.70" angle="90.00" type="car" speed="9.33" pos="95.03" lane="beg_0" slope="0.00"/>
    </timestep>
    <timestep time="31.00">