<?xml version="1.0" encoding="UTF-8"?>

<!-- generated on Fri Oct 16 13:50:35 2015 by SUMO Version dev-SVN-r19063
<?xml version="1.0" encoding="UTF-8"?>

<configuration xmlns:xsi="http://www.w3.org/2001/XMLSchema-instance" xsi:noNamespaceSchemaLocation="http://sumo.dlr.de/xsd/sumoConfiguration.xsd">

    <input>
        <net-file value="net.net.xml"/>
        <route-files value="input_routes.rou.xml"/>
    </input>

    <output>
        <fcd-output value="fcd.xml"/>
        <tripinfo-output value="tripinfos.xml"/>
    </output>

    <processing>
        <lateral-resolution value="0.8"/>
    </processing>

    <report>
        <xml-validation value="never"/>
        <no-step-log value="true"/>
    </report>

</configuration>
-->

<fcd-export xmlns:xsi="http://www.w3.org/2001/XMLSchema-instance" xsi:noNamespaceSchemaLocation="http://sumo.dlr.de/xsd/fcd_file.xsd">
    <timestep time="0.00">
        <vehicle id="cars.0" x="5.10" y="-4.65" angle="90.00" type="car" speed="0.00" pos="5.10" lane="beg_0" slope="0.00"/>
    </timestep>
    <timestep time="1.00">
        <vehicle id="cars.0" x="7.64" y="-4.65" angle="90.00" type="car" speed="2.54" pos="7.64" lane="beg_0" slope="0.00"/>
    </timestep>
    <timestep time="2.00">
        <vehicle id="cars.0" x="12.14" y="-4.65" angle="90.00" type="car" speed="4.50" pos="12.14" lane="beg_0" slope="0.00"/>
        <vehicle id="cars.1" x="5.10" y="-2.29" angle="90.00" type="car" speed="0.00" pos="5.10" lane="beg_1" slope="0.00"/>
    </timestep>
    <timestep time="3.00">
        <vehicle id="cars.0" x="18.92" y="-4.65" angle="90.00" type="car" speed="6.78" pos="18.92" lane="beg_0" slope="0.00"/>
        <vehicle id="cars.1" x="6.73" y="-2.29" angle="90.00" type="car" speed="1.63" pos="6.73" lane="beg_1" slope="0.00"/>
    </timestep>
    <timestep time="4.00">
        <vehicle id="cars.0" x="27.33" y="-4.65" angle="90.00" type="car" speed="8.41" pos="27.33" lane="beg_0" slope="0.00"/>
        <vehicle id="cars.1" x="10.26" y="-2.29" angle="90.00" type="car" speed="3.52" pos="10.26" lane="beg_1" slope="0.00"/>
    </timestep>
    <timestep time="5.00">
        <vehicle id="cars.0" x="37.76" y="-4.65" angle="90.00" type="car" speed="10.42" pos="37.76" lane="beg_0" slope="0.00"/>
        <vehicle id="cars.1" x="15.78" y="-2.29" angle="90.00" type="car" speed="5.52" pos="15.78" lane="beg_1" slope="0.00"/>
        <vehicle id="cars.2" x="5.10" y="-1.98" angle="90.00" type="car" speed="0.00" pos="5.10" lane="beg_1" slope="0.00"/>
    </timestep>
    <timestep time="6.00">
        <vehicle id="cars.0" x="50.36" y="-4.65" angle="90.00" type="car" speed="12.61" pos="50.36" lane="beg_0" slope="0.00"/>
        <vehicle id="cars.1" x="23.82" y="-2.29" angle="90.00" type="car" speed="8.04" pos="23.82" lane="beg_1" slope="0.00"/>
        <vehicle id="cars.2" x="6.56" y="-1.98" angle="90.00" type="car" speed="1.46" pos="6.56" lane="beg_1" slope="0.00"/>
        <vehicle id="cars.3" x="5.10" y="-5.59" angle="90.00" type="car" speed="0.00" pos="5.10" lane="beg_0" slope="0.00"/>
    </timestep>
    <timestep time="7.00">
        <vehicle id="cars.0" x="64.75" y="-4.65" angle="90.00" type="car" speed="14.38" pos="64.75" lane="beg_0" slope="0.00"/>
        <vehicle id="cars.1" x="33.79" y="-2.29" angle="90.00" type="car" speed="9.97" pos="33.79" lane="beg_1" slope="0.00"/>
        <vehicle id="cars.2" x="10.22" y="-1.98" angle="90.00" type="car" speed="3.66" pos="10.22" lane="beg_1" slope="0.00"/>
        <vehicle id="cars.3" x="6.48" y="-5.59" angle="90.00" type="car" speed="1.38" pos="6.48" lane="beg_0" slope="0.00"/>
    </timestep>
    <timestep time="8.00">
        <vehicle id="cars.0" x="79.79" y="-4.65" angle="90.00" type="car" speed="15.04" pos="79.79" lane="beg_0" slope="0.00"/>
        <vehicle id="cars.1" x="44.90" y="-2.29" angle="90.00" type="car" speed="11.10" pos="44.90" lane="beg_1" slope="0.00"/>
        <vehicle id="cars.2" x="15.33" y="-1.98" angle="90.00" type="car" speed="5.11" pos="15.33" lane="beg_1" slope="0.00"/>
        <vehicle id="cars.3" x="9.75" y="-5.59" angle="90.00" type="car" speed="3.27" pos="9.75" lane="beg_0" slope="0.00"/>
        <vehicle id="cars.4" x="5.10" y="-2.30" angle="90.00" type="car" speed="0.00" pos="5.10" lane="beg_1" slope="0.00"/>
    </timestep>
    <timestep time="9.00">
        <vehicle id="cars.0" x="94.10" y="-4.65" angle="90.00" type="car" speed="14.31" pos="94.10" lane="beg_0" slope="0.00"/>
        <vehicle id="cars.1" x="56.68" y="-2.29" angle="90.00" type="car" speed="11.78" pos="56.68" lane="beg_1" slope="0.00"/>
        <vehicle id="cars.2" x="22.05" y="-1.98" angle="90.00" type="car" speed="6.71" pos="22.05" lane="beg_1" slope="0.00"/>
        <vehicle id="cars.3" x="15.58" y="-5.59" angle="90.00" type="car" speed="5.83" pos="15.58" lane="beg_0" slope="0.00"/>
        <vehicle id="cars.4" x="7.49" y="-2.30" angle="90.00" type="car" speed="2.39" pos="7.49" lane="beg_1" slope="0.00"/>
    </timestep>
    <timestep time="10.00">
        <vehicle id="cars.0" x="109.49" y="-4.65" angle="90.00" type="car" speed="15.39" pos="109.49" lane="beg_0" slope="0.00"/>
        <vehicle id="cars.1" x="67.97" y="-2.29" angle="90.00" type="car" speed="11.29" pos="67.97" lane="beg_1" slope="0.00"/>
        <vehicle id="cars.2" x="30.93" y="-1.98" angle="90.00" type="car" speed="8.88" pos="30.93" lane="beg_1" slope="0.00"/>
        <vehicle id="cars.3" x="23.48" y="-5.59" angle="90.00" type="car" speed="7.90" pos="23.48" lane="beg_0" slope="0.00"/>
        <vehicle id="cars.4" x="12.32" y="-2.30" angle="90.00" type="car" speed="4.82" pos="12.32" lane="beg_1" slope="0.00"/>
    </timestep>
    <timestep time="11.00">
        <vehicle id="cars.0" x="124.73" y="-4.65" angle="90.00" type="car" speed="15.24" pos="124.73" lane="beg_0" slope="0.00"/>
        <vehicle id="cars.1" x="79.85" y="-2.29" angle="90.00" type="car" speed="11.89" pos="79.85" lane="beg_1" slope="0.00"/>
        <vehicle id="cars.2" x="42.20" y="-1.98" angle="90.00" type="car" speed="11.27" pos="42.20" lane="beg_1" slope="0.00"/>
        <vehicle id="cars.3" x="32.92" y="-5.59" angle="90.00" type="car" speed="9.44" pos="32.92" lane="beg_0" slope="0.00"/>
        <vehicle id="cars.4" x="19.00" y="-2.30" angle="90.00" type="car" speed="6.68" pos="19.00" lane="beg_1" slope="0.00"/>
        <vehicle id="cars.5" x="5.10" y="-4.71" angle="90.00" type="car" speed="0.00" pos="5.10" lane="beg_0" slope="0.00"/>
    </timestep>
    <timestep time="12.00">
        <vehicle id="cars.0" x="139.08" y="-4.65" angle="90.00" type="car" speed="14.34" pos="139.08" lane="beg_0" slope="0.00"/>
        <vehicle id="cars.1" x="91.10" y="-2.29" angle="90.00" type="car" speed="11.25" pos="91.10" lane="beg_1" slope="0.00"/>
        <vehicle id="cars.2" x="55.29" y="-1.98" angle="90.00" type="car" speed="13.09" pos="55.29" lane="beg_1" slope="0.00"/>
        <vehicle id="cars.3" x="43.72" y="-5.59" angle="90.00" type="car" speed="10.79" pos="43.72" lane="beg_0" slope="0.00"/>
        <vehicle id="cars.4" x="27.38" y="-2.30" angle="90.00" type="car" speed="8.38" pos="27.38" lane="beg_1" slope="0.00"/>
        <vehicle id="cars.5" x="7.30" y="-4.71" angle="90.00" type="car" speed="2.20" pos="7.30" lane="beg_0" slope="0.00"/>
        <vehicle id="cars.6" x="5.10" y="-1.54" angle="90.00" type="car" speed="0.00" pos="5.10" lane="beg_1" slope="0.00"/>
    </timestep>
    <timestep time="13.00">
        <vehicle id="cars.0" x="154.43" y="-4.65" angle="90.00" type="car" speed="15.36" pos="154.43" lane="beg_0" slope="0.00"/>
        <vehicle id="cars.1" x="103.05" y="-2.29" angle="90.00" type="car" speed="11.96" pos="103.05" lane="beg_1" slope="0.00"/>
        <vehicle id="cars.2" x="68.23" y="-1.98" angle="90.00" type="car" speed="12.94" pos="68.23" lane="beg_1" slope="0.00"/>
        <vehicle id="cars.3" x="57.08" y="-5.59" angle="90.00" type="car" speed="13.36" pos="57.08" lane="beg_0" slope="0.00"/>
        <vehicle id="cars.4" x="38.13" y="-2.30" angle="90.00" type="car" speed="10.74" pos="38.13" lane="beg_1" slope="0.00"/>
        <vehicle id="cars.5" x="11.74" y="-4.71" angle="90.00" type="car" speed="4.44" pos="11.74" lane="beg_0" slope="0.00"/>
        <vehicle id="cars.6" x="6.87" y="-1.54" angle="90.00" type="car" speed="1.77" pos="6.87" lane="beg_1" slope="0.00"/>
    </timestep>
    <timestep time="14.00">
        <vehicle id="cars.0" x="168.70" y="-4.65" angle="90.00" type="car" speed="14.27" pos="168.70" lane="beg_0" slope="0.00"/>
        <vehicle id="cars.1" x="114.52" y="-2.29" angle="90.00" type="car" speed="11.47" pos="114.52" lane="beg_1" slope="0.00"/>
        <vehicle id="cars.2" x="81.80" y="-1.98" angle="90.00" type="car" speed="13.58" pos="81.80" lane="beg_1" slope="0.00"/>
        <vehicle id="cars.3" x="72.63" y="-5.59" angle="90.00" type="car" speed="15.55" pos="72.63" lane="beg_0" slope="0.00"/>
        <vehicle id="cars.4" x="51.38" y="-2.30" angle="90.00" type="car" speed="13.26" pos="51.38" lane="beg_1" slope="0.00"/>
        <vehicle id="cars.5" x="18.33" y="-4.71" angle="90.00" type="car" speed="6.60" pos="18.33" lane="beg_0" slope="0.00"/>
        <vehicle id="cars.6" x="11.00" y="-1.54" angle="90.00" type="car" speed="4.13" pos="11.00" lane="beg_1" slope="0.00"/>
    </timestep>
    <timestep time="15.00">
        <vehicle id="cars.0" x="183.32" y="-4.65" angle="90.00" type="car" speed="14.62" pos="183.32" lane="beg_0" slope="0.00"/>
        <vehicle id="cars.1" x="126.56" y="-2.29" angle="90.00" type="car" speed="12.04" pos="126.56" lane="beg_1" slope="0.00"/>
        <vehicle id="cars.2" x="95.86" y="-1.98" angle="90.00" type="car" speed="14.06" pos="95.86" lane="beg_1" slope="0.00"/>
        <vehicle id="cars.3" x="88.36" y="-5.59" angle="90.00" type="car" speed="15.73" pos="88.36" lane="beg_0" slope="0.00"/>
        <vehicle id="cars.4" x="66.06" y="-2.30" angle="90.00" type="car" speed="14.67" pos="66.06" lane="beg_1" slope="0.00"/>
        <vehicle id="cars.5" x="27.15" y="-4.71" angle="90.00" type="car" speed="8.82" pos="27.15" lane="beg_0" slope="0.00"/>
        <vehicle id="cars.6" x="17.63" y="-1.54" angle="90.00" type="car" speed="6.63" pos="17.63" lane="beg_1" slope="0.00"/>
        <vehicle id="cars.7" x="5.10" y="-4.70" angle="90.00" type="car" speed="0.00" pos="5.10" lane="beg_0" slope="0.00"/>
    </timestep>
    <timestep time="16.00">
        <vehicle id="cars.0" x="197.80" y="-4.65" angle="90.00" type="car" speed="14.48" pos="197.80" lane="beg_0" slope="0.00"/>
        <vehicle id="cars.1" x="138.46" y="-2.29" angle="90.00" type="car" speed="11.90" pos="138.46" lane="beg_1" slope="0.00"/>
        <vehicle id="cars.2" x="109.64" y="-1.98" angle="90.00" type="car" speed="13.78" pos="109.64" lane="beg_1" slope="0.00"/>
        <vehicle id="cars.3" x="103.78" y="-5.59" angle="90.00" type="car" speed="15.43" pos="103.78" lane="beg_0" slope="0.00"/>
        <vehicle id="cars.4" x="80.28" y="-2.30" angle="90.00" type="car" speed="14.23" pos="80.28" lane="beg_1" slope="0.00"/>
        <vehicle id="cars.5" x="35.81" y="-4.71" angle="90.00" type="car" speed="8.65" pos="35.81" lane="beg_0" slope="0.00"/>
        <vehicle id="cars.6" x="26.19" y="-1.54" angle="90.00" type="car" speed="8.56" pos="26.19" lane="beg_1" slope="0.00"/>
        <vehicle id="cars.7" x="7.23" y="-4.70" angle="90.00" type="car" speed="2.13" pos="7.23" lane="beg_0" slope="0.00"/>
        <vehicle id="cars.8" x="5.10" y="-2.32" angle="90.00" type="car" speed="0.00" pos="5.10" lane="beg_1" slope="0.00"/>
    </timestep>
    <timestep time="17.00">
        <vehicle id="cars.0" x="212.72" y="-4.65" angle="90.00" type="car" speed="14.92" pos="212.72" lane="beg_0" slope="0.00"/>
        <vehicle id="cars.1" x="150.44" y="-2.29" angle="90.00" type="car" speed="11.98" pos="150.44" lane="beg_1" slope="0.00"/>
        <vehicle id="cars.2" x="123.75" y="-1.98" angle="90.00" type="car" speed="14.11" pos="123.75" lane="beg_1" slope="0.00"/>
        <vehicle id="cars.3" x="119.42" y="-5.59" angle="90.00" type="car" speed="15.63" pos="119.42" lane="beg_0" slope="0.00"/>
        <vehicle id="cars.4" x="93.87" y="-2.30" angle="90.00" type="car" speed="13.59" pos="93.87" lane="beg_1" slope="0.00"/>
        <vehicle id="cars.5" x="44.08" y="-4.71" angle="90.00" type="car" speed="8.27" pos="44.08" lane="beg_0" slope="0.00"/>
        <vehicle id="cars.6" x="36.54" y="-1.54" angle="90.00" type="car" speed="10.35" pos="36.54" lane="beg_1" slope="0.00"/>
        <vehicle id="cars.7" x="11.36" y="-4.70" angle="90.00" type="car" speed="4.13" pos="11.36" lane="beg_0" slope="0.00"/>
        <vehicle id="cars.8" x="6.50" y="-2.32" angle="90.00" type="car" speed="1.40" pos="6.50" lane="beg_1" slope="0.00"/>
    </timestep>
    <timestep time="18.00">
        <vehicle id="cars.0" x="227.83" y="-4.65" angle="90.00" type="car" speed="15.11" pos="227.83" lane="beg_0" slope="0.00"/>
        <vehicle id="cars.1" x="162.05" y="-2.29" angle="90.00" type="car" speed="11.61" pos="162.05" lane="beg_1" slope="0.00"/>
        <vehicle id="cars.2" x="137.54" y="-1.98" angle="90.00" type="car" speed="13.79" pos="137.54" lane="beg_1" slope="0.00"/>
        <vehicle id="cars.3" x="134.70" y="-5.59" angle="90.00" type="car" speed="15.28" pos="134.70" lane="beg_0" slope="0.00"/>
        <vehicle id="cars.4" x="107.34" y="-2.30" angle="90.00" type="car" speed="13.47" pos="107.34" lane="beg_1" slope="0.00"/>
        <vehicle id="cars.5" x="53.14" y="-4.71" angle="90.00" type="car" speed="9.06" pos="53.14" lane="beg_0" slope="0.00"/>
        <vehicle id="cars.6" x="49.11" y="-1.54" angle="90.00" type="car" speed="12.56" pos="49.11" lane="beg_1" slope="0.00"/>
        <vehicle id="cars.7" x="17.48" y="-4.70" angle="90.00" type="car" speed="6.13" pos="17.48" lane="beg_0" slope="0.00"/>
        <vehicle id="cars.8" x="9.96" y="-2.32" angle="90.00" type="car" speed="3.46" pos="9.96" lane="beg_1" slope="0.00"/>
    </timestep>
    <timestep time="19.00">
        <vehicle id="cars.0" x="242.24" y="-4.65" angle="90.00" type="car" speed="14.41" pos="242.24" lane="beg_0" slope="0.00"/>
        <vehicle id="cars.1" x="174.04" y="-2.29" angle="90.00" type="car" speed="11.99" pos="174.04" lane="beg_1" slope="0.00"/>
        <vehicle id="cars.2" x="150.49" y="-1.98" angle="90.00" type="car" speed="12.95" pos="150.49" lane="beg_1" slope="0.00"/>
        <vehicle id="cars.3" x="150.40" y="-5.59" angle="90.00" type="car" speed="15.70" pos="150.40" lane="beg_0" slope="0.00"/>
        <vehicle id="cars.4" x="121.91" y="-2.30" angle="90.00" type="car" speed="14.57" pos="121.91" lane="beg_1" slope="0.00"/>
        <vehicle id="cars.5" x="61.72" y="-4.71" angle="90.00" type="car" speed="8.57" pos="61.72" lane="beg_0" slope="0.00"/>
        <vehicle id="cars.6" x="63.34" y="-1.54" angle="90.00" type="car" speed="14.24" pos="63.34" lane="beg_1" slope="0.00"/>
        <vehicle id="cars.7" x="26.16" y="-4.70" angle="90.00" type="car" speed="8.67" pos="26.16" lane="beg_0" slope="0.00"/>
        <vehicle id="cars.8" x="15.84" y="-2.32" angle="90.00" type="car" speed="5.88" pos="15.84" lane="beg_1" slope="0.00"/>
        <vehicle id="cars.9" x="5.10" y="-4.70" angle="90.00" type="car" speed="0.00" pos="5.10" lane="beg_0" slope="0.00"/>
    </timestep>
    <timestep time="20.00">
        <vehicle id="cars.0" x="256.93" y="-4.65" angle="90.00" type="car" speed="14.69" pos="256.93" lane="beg_0" slope="0.00"/>
        <vehicle id="cars.1" x="185.58" y="-2.29" angle="90.00" type="car" speed="11.54" pos="185.58" lane="beg_1" slope="0.00"/>
        <vehicle id="cars.2" x="163.28" y="-1.98" angle="90.00" type="car" speed="12.80" pos="163.28" lane="beg_1" slope="0.00"/>
        <vehicle id="cars.3" x="166.03" y="-5.59" angle="90.00" type="car" speed="15.63" pos="166.03" lane="beg_0" slope="0.00"/>
        <vehicle id="cars.4" x="136.45" y="-2.30" angle="90.00" type="car" speed="14.53" pos="136.45" lane="beg_1" slope="0.00"/>
        <vehicle id="cars.5" x="70.15" y="-4.71" angle="90.00" type="car" speed="8.43" pos="70.15" lane="beg_0" slope="0.00"/>
        <vehicle id="cars.6" x="77.33" y="-1.54" angle="90.00" type="car" speed="13.99" pos="77.33" lane="beg_1" slope="0.00"/>
        <vehicle id="cars.7" x="36.52" y="-4.70" angle="90.00" type="car" speed="10.36" pos="36.52" lane="beg_0" slope="0.00"/>
        <vehicle id="cars.8" x="23.87" y="-2.32" angle="90.00" type="car" speed="8.03" pos="23.87" lane="beg_1" slope="0.00"/>
        <vehicle id="cars.9" x="7.21" y="-4.70" angle="90.00" type="car" speed="2.11" pos="7.21" lane="beg_0" slope="0.00"/>
    </timestep>
    <timestep time="21.00">
        <vehicle id="cars.0" x="271.65" y="-4.65" angle="90.00" type="car" speed="14.72" pos="271.65" lane="beg_0" slope="0.00"/>
        <vehicle id="cars.1" x="197.32" y="-2.29" angle="90.00" type="car" speed="11.73" pos="197.32" lane="beg_1" slope="0.00"/>
        <vehicle id="cars.2" x="175.53" y="-1.98" angle="90.00" type="car" speed="12.24" pos="175.53" lane="beg_1" slope="0.00"/>
        <vehicle id="cars.3" x="181.14" y="-5.59" angle="90.00" type="car" speed="15.12" pos="181.14" lane="beg_0" slope="0.00"/>
        <vehicle id="cars.4" x="150.31" y="-2.30" angle="90.00" type="car" speed="13.86" pos="150.31" lane="beg_1" slope="0.00"/>
        <vehicle id="cars.5" x="78.12" y="-4.71" angle="90.00" type="car" speed="7.97" pos="78.12" lane="beg_0" slope="0.00"/>
        <vehicle id="cars.6" x="92.36" y="-1.54" angle="90.00" type="car" speed="15.03" pos="92.36" lane="beg_1" slope="0.00"/>
        <vehicle id="cars.7" x="46.53" y="-4.70" angle="90.00" type="car" speed="10.01" pos="46.53" lane="beg_0" slope="0.00"/>
        <vehicle id="cars.8" x="33.39" y="-2.32" angle="90.00" type="car" speed="9.52" pos="33.39" lane="beg_1" slope="0.00"/>
        <vehicle id="cars.9" x="11.89" y="-4.70" angle="90.00" type="car" speed="4.69" pos="11.89" lane="beg_0" slope="0.00"/>
    </timestep>
    <timestep time="22.00">
        <vehicle id="cars.0" x="286.76" y="-4.65" angle="90.00" type="car" speed="15.11" pos="286.76" lane="beg_0" slope="0.00"/>
        <vehicle id="cars.1" x="208.86" y="-2.29" angle="90.00" type="car" speed="11.54" pos="208.86" lane="beg_1" slope="0.00"/>
        <vehicle id="cars.2" x="187.53" y="-1.98" angle="90.00" type="car" speed="12.01" pos="187.53" lane="beg_1" slope="0.00"/>
        <vehicle id="cars.3" x="196.29" y="-5.59" angle="90.00" type="car" speed="15.15" pos="196.29" lane="beg_0" slope="0.00"/>
        <vehicle id="cars.4" x="163.61" y="-2.30" angle="90.00" type="car" speed="13.30" pos="163.61" lane="beg_1" slope="0.00"/>
        <vehicle id="cars.5" x="86.70" y="-4.71" angle="90.00" type="car" speed="8.59" pos="86.70" lane="beg_0" slope="0.00"/>
        <vehicle id="cars.6" x="106.34" y="-1.54" angle="90.00" type="car" speed="13.99" pos="106.34" lane="beg_1" slope="0.00"/>
        <vehicle id="cars.7" x="56.81" y="-4.70" angle="90.00" type="car" speed="10.28" pos="56.81" lane="beg_0" slope="0.00"/>
        <vehicle id="cars.8" x="45.29" y="-2.32" angle="90.00" type="car" speed="11.90" pos="45.29" lane="beg_1" slope="0.00"/>
        <vehicle id="cars.9" x="19.18" y="-4.70" angle="90.00" type="car" speed="7.29" pos="19.18" lane="beg_0" slope="0.00"/>
    </timestep>
    <timestep time="23.00">
        <vehicle id="cars.0" x="301.78" y="-4.65" angle="90.00" type="car" speed="15.02" pos="301.78" lane="beg_0" slope="0.00"/>
        <vehicle id="cars.1" x="220.60" y="-2.29" angle="90.00" type="car" speed="11.75" pos="220.60" lane="beg_1" slope="0.00"/>
        <vehicle id="cars.2" x="199.24" y="-1.98" angle="90.00" type="car" speed="11.70" pos="199.24" lane="beg_1" slope="0.00"/>
        <vehicle id="cars.3" x="212.33" y="-5.59" angle="90.00" type="car" speed="16.04" pos="212.33" lane="beg_0" slope="0.00"/>
        <vehicle id="cars.4" x="177.07" y="-2.30" angle="90.00" type="car" speed="13.47" pos="177.07" lane="beg_1" slope="0.00"/>
        <vehicle id="cars.5" x="94.79" y="-4.71" angle="90.00" type="car" speed="8.09" pos="94.79" lane="beg_0" slope="0.00"/>
        <vehicle id="cars.6" x="120.87" y="-1.54" angle="90.00" type="car" speed="14.53" pos="120.87" lane="beg_1" slope="0.00"/>
        <vehicle id="cars.7" x="66.47" y="-4.70" angle="90.00" type="car" speed="9.66" pos="66.47" lane="beg_0" slope="0.00"/>
        <vehicle id="cars.8" x="56.27" y="-2.32" angle="90.00" type="car" speed="10.98" pos="56.27" lane="beg_1" slope="0.00"/>
        <vehicle id="cars.9" x="28.56" y="-4.70" angle="90.00" type="car" speed="9.38" pos="28.56" lane="beg_0" slope="0.00"/>
    </timestep>
    <timestep time="24.00">
        <vehicle id="cars.0" x="316.24" y="-4.65" angle="90.00" type="car" speed="14.46" pos="316.24" lane="beg_0" slope="0.00"/>
        <vehicle id="cars.1" x="232.13" y="-2.29" angle="90.00" type="car" speed="11.53" pos="232.13" lane="beg_1" slope="0.00"/>
        <vehicle id="cars.2" x="211.37" y="-1.98" angle="90.00" type="car" speed="12.14" pos="211.37" lane="beg_1" slope="0.00"/>
        <vehicle id="cars.3" x="228.09" y="-5.59" angle="90.00" type="car" speed="15.75" pos="228.09" lane="beg_0" slope="0.00"/>
        <vehicle id="cars.4" x="188.55" y="-2.30" angle="90.00" type="car" speed="11.47" pos="188.55" lane="beg_1" slope="0.00"/>
        <vehicle id="cars.5" x="103.72" y="-4.71" angle="90.00" type="car" speed="8.93" pos="103.72" lane="beg_0" slope="0.00"/>
        <vehicle id="cars.6" x="135.02" y="-1.54" angle="90.00" type="car" speed="14.14" pos="135.02" lane="beg_1" slope="0.00"/>
        <vehicle id="cars.7" x="76.99" y="-4.70" angle="90.00" type="car" speed="10.52" pos="76.99" lane="beg_0" slope="0.00"/>
        <vehicle id="cars.8" x="67.84" y="-2.32" angle="90.00" type="car" speed="11.56" pos="67.84" lane="beg_1" slope="0.00"/>
        <vehicle id="cars.9" x="37.89" y="-4.70" angle="90.00" type="car" speed="9.33" pos="37.89" lane="beg_0" slope="0.00"/>
    </timestep>
    <timestep time="25.00">
        <vehicle id="cars.0" x="331.59" y="-4.65" angle="90.00" type="car" speed="15.35" pos="331.59" lane="beg_0" slope="0.00"/>
        <vehicle id="cars.1" x="244.10" y="-2.29" angle="90.00" type="car" speed="11.97" pos="244.10" lane="beg_1" slope="0.00"/>
        <vehicle id="cars.2" x="223.01" y="-1.98" angle="90.00" type="car" speed="11.63" pos="223.01" lane="beg_1" slope="0.00"/>
        <vehicle id="cars.3" x="243.52" y="-5.59" angle="90.00" type="car" speed="15.43" pos="243.52" lane="beg_0" slope="0.00"/>
        <vehicle id="cars.4" x="201.17" y="-2.30" angle="90.00" type="car" speed="12.62" pos="201.17" lane="beg_1" slope="0.00"/>
        <vehicle id="cars.5" x="112.74" y="-4.71" angle="90.00" type="car" speed="9.03" pos="112.74" lane="beg_0" slope="0.00"/>
        <vehicle id="cars.6" x="149.70" y="-1.54" angle="90.00" type="car" speed="14.69" pos="149.70" lane="beg_1" slope="0.00"/>
        <vehicle id="cars.7" x="86.69" y="-4.70" angle="90.00" type="car" speed="9.70" pos="86.69" lane="beg_0" slope="0.00"/>
        <vehicle id="cars.8" x="78.96" y="-2.32" angle="90.00" type="car" speed="11.12" pos="78.96" lane="beg_1" slope="0.00"/>
        <vehicle id="cars.9" x="47.66" y="-4.70" angle="90.00" type="car" speed="9.77" pos="47.66" lane="beg_0" slope="0.00"/>
    </timestep>
    <timestep time="26.00">
        <vehicle id="cars.0" x="346.73" y="-4.65" angle="90.00" type="car" speed="15.14" pos="346.73" lane="beg_0" slope="0.00"/>
        <vehicle id="cars.1" x="256.21" y="-2.29" angle="90.00" type="car" speed="12.11" pos="256.21" lane="beg_1" slope="0.00"/>
        <vehicle id="cars.2" x="235.37" y="-1.98" angle="90.00" type="car" speed="12.36" pos="235.37" lane="beg_1" slope="0.00"/>
        <vehicle id="cars.3" x="259.38" y="-5.59" angle="90.00" type="car" speed="15.86" pos="259.38" lane="beg_0" slope="0.00"/>
        <vehicle id="cars.4" x="213.41" y="-2.30" angle="90.00" type="car" speed="12.24" pos="213.41" lane="beg_1" slope="0.00"/>
        <vehicle id="cars.5" x="120.83" y="-4.71" angle="90.00" type="car" speed="8.09" pos="120.83" lane="beg_0" slope="0.00"/>
        <vehicle id="cars.6" x="164.61" y="-1.54" angle="90.00" type="car" speed="14.91" pos="164.61" lane="beg_1" slope="0.00"/>
        <vehicle id="cars.7" x="96.81" y="-4.70" angle="90.00" type="car" speed="10.12" pos="96.81" lane="beg_0" slope="0.00"/>
        <vehicle id="cars.8" x="89.93" y="-2.32" angle="90.00" type="car" speed="10.97" pos="89.93" lane="beg_1" slope="0.00"/>
        <vehicle id="cars.9" x="57.32" y="-4.70" angle="90.00" type="car" speed="9.67" pos="57.32" lane="beg_0" slope="0.00"/>
    </timestep>
    <timestep time="27.00">
        <vehicle id="cars.0" x="361.26" y="-4.65" angle="90.00" type="car" speed="14.53" pos="361.26" lane="beg_0" slope="0.00"/>
        <vehicle id="cars.1" x="268.23" y="-2.29" angle="90.00" type="car" speed="12.02" pos="268.23" lane="beg_1" slope="0.00"/>
        <vehicle id="cars.2" x="247.28" y="-1.98" angle="90.00" type="car" speed="11.91" pos="247.28" lane="beg_1" slope="0.00"/>
        <vehicle id="cars.3" x="275.04" y="-5.59" angle="90.00" type="car" speed="15.66" pos="275.04" lane="beg_0" slope="0.00"/>
        <vehicle id="cars.4" x="226.18" y="-2.30" angle="90.00" type="car" speed="12.77" pos="226.18" lane="beg_1" slope="0.00"/>
        <vehicle id="cars.5" x="129.92" y="-4.71" angle="90.00" type="car" speed="9.09" pos="129.92" lane="beg_0" slope="0.00"/>
        <vehicle id="cars.6" x="178.58" y="-1.54" angle="90.00" type="car" speed="13.97" pos="178.58" lane="beg_1" slope="0.00"/>
        <vehicle id="cars.7" x="106.79" y="-4.70" angle="90.00" type="car" speed="9.98" pos="106.79" lane="beg_0" slope="0.00"/>
        <vehicle id="cars.8" x="101.35" y="-2.32" angle="90.00" type="car" speed="11.43" pos="101.35" lane="beg_1" slope="0.00"/>
        <vehicle id="cars.9" x="67.20" y="-4.70" angle="90.00" type="car" speed="9.87" pos="67.20" lane="beg_0" slope="0.00"/>
    </timestep>
    <timestep time="28.00">
        <vehicle id="cars.0" x="376.80" y="-4.65" angle="90.00" type="car" speed="15.55" pos="376.80" lane="beg_0" slope="0.00"/>
        <vehicle id="cars.1" x="279.92" y="-2.29" angle="90.00" type="car" speed="11.69" pos="279.92" lane="beg_1" slope="0.00"/>
        <vehicle id="cars.2" x="259.30" y="-1.98" angle="90.00" type="car" speed="12.02" pos="259.30" lane="beg_1" slope="0.00"/>
        <vehicle id="cars.3" x="290.46" y="-5.59" angle="90.00" type="car" speed="15.42" pos="290.46" lane="beg_0" slope="0.00"/>
        <vehicle id="cars.4" x="237.79" y="-2.30" angle="90.00" type="car" speed="11.61" pos="237.79" lane="beg_1" slope="0.00"/>
        <vehicle id="cars.5" x="139.01" y="-4.71" angle="90.00" type="car" speed="9.09" pos="139.01" lane="beg_0" slope="0.00"/>
        <vehicle id="cars.6" x="193.59" y="-1.54" angle="90.00" type="car" speed="15.01" pos="193.59" lane="beg_1" slope="0.00"/>
        <vehicle id="cars.7" x="116.95" y="-4.70" angle="90.00" type="car" speed="10.16" pos="116.95" lane="beg_0" slope="0.00"/>
        <vehicle id="cars.8" x="112.92" y="-2.32" angle="90.00" type="car" speed="11.57" pos="112.92" lane="beg_1" slope="0.00"/>
        <vehicle id="cars.9" x="76.08" y="-4.70" angle="90.00" type="car" speed="8.88" pos="76.08" lane="beg_0" slope="0.00"/>
    </timestep>
    <timestep time="29.00">
        <vehicle id="cars.0" x="392.22" y="-4.65" angle="90.00" type="car" speed="15.41" pos="392.22" lane="beg_0" slope="0.00"/>
        <vehicle id="cars.1" x="291.62" y="-2.29" angle="90.00" type="car" speed="11.70" pos="291.62" lane="beg_1" slope="0.00"/>
        <vehicle id="cars.2" x="271.07" y="-1.98" angle="90.00" type="car" speed="11.77" pos="271.07" lane="beg_1" slope="0.00"/>
        <vehicle id="cars.3" x="305.96" y="-5.59" angle="90.00" type="car" speed="15.50" pos="305.96" lane="beg_0" slope="0.00"/>
        <vehicle id="cars.4" x="250.22" y="-2.30" angle="90.00" type="car" speed="12.43" pos="250.22" lane="beg_1" slope="0.00"/>
        <vehicle id="cars.5" x="148.19" y="-4.71" angle="90.00" type="car" speed="9.18" pos="148.19" lane="beg_0" slope="0.00"/>
        <vehicle id="cars.6" x="207.48" y="-1.54" angle="90.00" type="car" speed="13.89" pos="207.48" lane="beg_1" slope="0.00"/>
        <vehicle id="cars.7" x="126.92" y="-4.70" angle="90.00" type="car" speed="9.97" pos="126.92" lane="beg_0" slope="0.00"/>
        <vehicle id="cars.8" x="124.58" y="-2.32" angle="90.00" type="car" speed="11.65" pos="124.58" lane="beg_1" slope="0.00"/>
        <vehicle id="cars.9" x="85.70" y="-4.70" angle="90.00" type="car" speed="9.62" pos="85.70" lane="beg_0" slope="0.00"/>
    </timestep>
    <timestep time="30.00">
        <vehicle id="cars.0" x="407.47" y="-4.65" angle="90.00" type="car" speed="15.26" pos="407.47" lane="beg_0" slope="0.00"/>
        <vehicle id="cars.1" x="303.44" y="-2.29" angle="90.00" type="car" speed="11.82" pos="303.44" lane="beg_1" slope="0.00"/>
        <vehicle id="cars.2" x="282.60" y="-1.98" angle="90.00" type="car" speed="11.53" pos="282.60" lane="beg_1" slope="0.00"/>
        <vehicle id="cars.3" x="321.90" y="-5.59" angle="90.00" type="car" speed="15.94" pos="321.90" lane="beg_0" slope="0.00"/>
        <vehicle id="cars.4" x="261.93" y="-2.30" angle="90.00" type="car" speed="11.71" pos="261.93" lane="beg_1" slope="0.00"/>
        <vehicle id="cars.5" x="156.93" y="-4.71" angle="90.00" type="car" speed="8.75" pos="156.93" lane="beg_0" slope="0.00"/>
        <vehicle id="cars.6" x="222.35" y="-1.54" angle="90.00" type="car" speed="14.87" pos="222.35" lane="beg_1" slope="0.00"/>
        <vehicle id="cars.7" x="137.29" y="-4.70" angle="90.00" type="car" speed="10.37" pos="137.29" lane="beg_0" slope="0.00"/>
        <vehicle id="cars.8" x="135.55" y="-2.32" angle="90.00" type="car" speed="10.97" pos="135.55" lane="beg_1" slope="0.00"/>
        <vehicle id="cars.9" x="95.03" y="-4.70" angle="90.00" type="car" speed="9.33" pos="95.03" lane="beg_0" slope="0.00"/>
    </timestep>
    <timestep time="31.00">