<?xml version="1.0" encoding="UTF-8"?>

<!-- generated on Thu Nov  5 11:03:24 2015 by SUMO Version dev-SVN-r19267
<?xml version="1.0" encoding="UTF-8"?>

<configuration xmlns:xsi="http://www.w3.org/2001/XMLSchema-instance" xsi:noNamespaceSchemaLocation="http://sumo.dlr.de/xsd/sumoConfiguration.xsd">

    <input>
        <net-file value="net.net.xml"/>
        <route-files value="input_routes.rou.xml"/>
    </input>

    <output>
        <fcd-output value="fcd.xml"/>
        <tripinfo-output value="tripinfos.xml"/>
    </output>

    <processing>
        <lateral-resolution value="0.8"/>
    </processing>

    <report>
        <xml-validation value="never"/>
        <no-step-log value="true"/>
    </report>

</configuration>
-->

<tripinfos xmlns:xsi="http://www.w3.org/2001/XMLSchema-instance" xsi:noNamespaceSchemaLocation="http://sumo.dlr.de/xsd/tripinfo_file.xsd">
    <tripinfo id="cars.0" depart="0.00" departLane="beg_0" departPos="5.10" departSpeed="0.00" departDelay="0.00" arrival="37.00" arrivalLane="beg_0" arrivalPos="500.00" arrivalSpeed="15.13" duration="37.00" routeLength="494.90" waitSteps="0" timeLoss="4.44" rerouteNo="0" devices="tripinfo_cars.0" vType="car" vaporized=""/>
    <tripinfo id="cars.3" depart="6.00" departLane="beg_0" departPos="5.10" departSpeed="0.00" departDelay="0.00" arrival="42.00" arrivalLane="beg_0" arrivalPos="500.00" arrivalSpeed="16.03" duration="36.00" routeLength="494.90" waitSteps="0" timeLoss="4.75" rerouteNo="0" devices="tripinfo_cars.3" vType="car" vaporized=""/>
    <tripinfo id="cars.1" depart="2.00" departLane="beg_1" departPos="5.10" departSpeed="0.00" departDelay="0.00" arrival="48.00" arrivalLane="beg_1" arrivalPos="500.00" arrivalSpeed="11.47" duration="46.00" routeLength="494.90" waitSteps="0" timeLoss="4.83" rerouteNo="0" devices="tripinfo_cars.1" vType="car" vaporized=""/>
    <tripinfo id="cars.4" depart="8.00" departLane="beg_1" departPos="5.10" departSpeed="0.00" departDelay="0.00" arrival="49.00" arrivalLane="beg_0" arrivalPos="500.00" arrivalSpeed="14.51" duration="41.00" routeLength="494.90" waitSteps="0" timeLoss="6.43" rerouteNo="0" devices="tripinfo_cars.4" vType="car" vaporized=""/>
    <tripinfo id="cars.2" depart="5.00" departLane="beg_1" departPos="5.10" departSpeed="0.00" departDelay="1.00" arrival="50.00" arrivalLane="beg_1" arrivalPos="500.00" arrivalSpeed="13.12" duration="45.00" routeLength="494.90" waitSteps="0" timeLoss="9.22" rerouteNo="0" devices="tripinfo_cars.2" vType="car" vaporized=""/>
    <tripinfo id="cars.6" depart="12.00" departLane="beg_1" departPos="5.10" departSpeed="0.00" departDelay="0.00" arrival="51.00" arrivalLane="beg_1" arrivalPos="500.00" arrivalSpeed="13.92" duration="39.00" routeLength="494.90" waitSteps="0" timeLoss="6.11" rerouteNo="0" devices="tripinfo_cars.6" vType="car" vaporized=""/>
    <tripinfo id="cars.8" depart="16.00" departLane="beg_1" departPos="5.10" departSpeed="0.00" departDelay="0.00" arrival="62.00" arrivalLane="beg_1" arrivalPos="500.00" arrivalSpeed="11.33" duration="46.00" routeLength="494.90" waitSteps="0" timeLoss="5.18" rerouteNo="0" devices="tripinfo_cars.8" vType="car" vaporized=""/>
    <tripinfo id="cars.7" depart="15.00" departLane="beg_0" departPos="5.10" departSpeed="0.00" departDelay="1.00" arrival="68.00" arrivalLane="beg_1" arrivalPos="500.00" arrivalSpeed="9.92" duration="53.00" routeLength="494.90" waitSteps="0" timeLoss="6.40" rerouteNo="0" devices="tripinfo_cars.7" vType="car" vaporized=""/>
    <tripinfo id="cars.5" depart="11.00" departLane="beg_0" departPos="5.10" departSpeed="0.00" departDelay="1.00" arrival="71.00" arrivalLane="beg_0" arrivalPos="500.00" arrivalSpeed="9.16" duration="60.00" routeLength="494.90" waitSteps="0" timeLoss="5.59" rerouteNo="0" devices="tripinfo_cars.5" vType="car" vaporized=""/>
    <tripinfo id="cars.9" depart="19.00" departLane="beg_0" departPos="5.10" departSpeed="0.00" departDelay="1.00" arrival="74.00" arrivalLane="beg_0" arrivalPos="500.00" arrivalSpeed="9.71" duration="55.00" routeLength="494.90" waitSteps="0" timeLoss="4.99" rerouteNo="0" devices="tripinfo_cars.9" vType="car" vaporized=""/>
</tripinfos>
