<?xml version="1.0" encoding="UTF-8"?>

<!-- generated on Wed Nov  4 10:08:55 2015 by SUMO Version dev-SVN-r19249
<?xml version="1.0" encoding="UTF-8"?>

<configuration xmlns:xsi="http://www.w3.org/2001/XMLSchema-instance" xsi:noNamespaceSchemaLocation="http://sumo.dlr.de/xsd/sumoConfiguration.xsd">

    <input>
        <net-file value="net.net.xml"/>
        <route-files value="input_routes.rou.xml"/>
    </input>

    <output>
        <fcd-output value="fcd.xml"/>
        <tripinfo-output value="tripinfos.xml"/>
    </output>

    <processing>
        <lateral-resolution value="0.8"/>
    </processing>

    <report>
        <xml-validation value="never"/>
        <no-step-log value="true"/>
    </report>

</configuration>
-->

<tripinfos xmlns:xsi="http://www.w3.org/2001/XMLSchema-instance" xsi:noNamespaceSchemaLocation="http://sumo.dlr.de/xsd/tripinfo_file.xsd">
    <tripinfo id="cars.0" depart="0.00" departLane="beg_0" departPos="5.10" departSpeed="0.00" departDelay="0.00" arrival="37.00" arrivalLane="beg_0" arrivalPos="500.00" arrivalSpeed="15.13" duration="37.00" routeLength="494.90" waitSteps="0" timeLoss="4.60" rerouteNo="0" devices="tripinfo_cars.0" vType="car" vaporized=""/>
    <tripinfo id="cars.2" depart="5.00" departLane="beg_1" departPos="5.10" departSpeed="0.00" departDelay="1.00" arrival="46.00" arrivalLane="beg_0" arrivalPos="500.00" arrivalSpeed="13.20" duration="41.00" routeLength="494.90" waitSteps="0" timeLoss="5.17" rerouteNo="0" devices="tripinfo_cars.2" vType="car" vaporized=""/>
    <tripinfo id="cars.4" depart="8.00" departLane="beg_1" departPos="5.10" departSpeed="0.00" departDelay="0.00" arrival="47.00" arrivalLane="beg_1" arrivalPos="500.00" arrivalSpeed="14.18" duration="39.00" routeLength="494.90" waitSteps="0" timeLoss="4.83" rerouteNo="0" devices="tripinfo_cars.4" vType="car" vaporized=""/>
    <tripinfo id="cars.1" depart="2.00" departLane="beg_1" departPos="5.10" departSpeed="0.00" departDelay="0.00" arrival="48.00" arrivalLane="beg_0" arrivalPos="500.00" arrivalSpeed="11.84" duration="46.00" routeLength="494.90" waitSteps="0" timeLoss="4.77" rerouteNo="0" devices="tripinfo_cars.1" vType="car" vaporized=""/>
    <tripinfo id="cars.3" depart="6.00" departLane="beg_0" departPos="5.10" departSpeed="0.00" departDelay="0.00" arrival="49.00" arrivalLane="beg_0" arrivalPos="500.00" arrivalSpeed="14.38" duration="43.00" routeLength="494.90" waitSteps="0" timeLoss="12.36" rerouteNo="0" devices="tripinfo_cars.3" vType="car" vaporized=""/>
    <tripinfo id="cars.6" depart="12.00" departLane="beg_1" departPos="5.10" departSpeed="0.00" departDelay="0.00" arrival="50.00" arrivalLane="beg_1" arrivalPos="500.00" arrivalSpeed="14.04" duration="38.00" routeLength="494.90" waitSteps="0" timeLoss="4.82" rerouteNo="0" devices="tripinfo_cars.6" vType="car" vaporized=""/>
    <tripinfo id="cars.8" depart="16.00" departLane="beg_1" departPos="5.10" departSpeed="0.00" departDelay="0.00" arrival="62.00" arrivalLane="beg_0" arrivalPos="500.00" arrivalSpeed="11.33" duration="46.00" routeLength="494.90" waitSteps="0" timeLoss="5.04" rerouteNo="0" devices="tripinfo_cars.8" vType="car" vaporized=""/>
    <tripinfo id="cars.7" depart="15.00" departLane="beg_0" departPos="5.10" departSpeed="0.00" departDelay="1.00" arrival="67.00" arrivalLane="beg_0" arrivalPos="500.00" arrivalSpeed="9.81" duration="52.00" routeLength="494.90" waitSteps="0" timeLoss="5.68" rerouteNo="0" devices="tripinfo_cars.7" vType="car" vaporized=""/>
    <tripinfo id="cars.5" depart="11.00" departLane="beg_0" departPos="5.10" departSpeed="0.00" departDelay="1.00" arrival="71.00" arrivalLane="beg_0" arrivalPos="500.00" arrivalSpeed="8.01" duration="60.00" routeLength="494.90" waitSteps="0" timeLoss="5.75" rerouteNo="0" devices="tripinfo_cars.5" vType="car" vaporized=""/>
    <tripinfo id="cars.9" depart="19.00" departLane="beg_0" departPos="5.10" departSpeed="0.00" departDelay="1.00" arrival="74.00" arrivalLane="beg_0" arrivalPos="500.00" arrivalSpeed="8.64" duration="55.00" routeLength="494.90" waitSteps="0" timeLoss="4.98" rerouteNo="0" devices="tripinfo_cars.9" vType="car" vaporized=""/>
</tripinfos>
